<LesHouchesEvents version="2.0">
<header>
</header>
<init>
 -11 11  2.5000000000E+02  2.5000000000E+02 -1 -1 -1 -1 3 1
  7.1988749153E+00  2.5187211053E-03  1.0000000000E+00 1
<generator version="3.1.6">WHIZARD</generator>
<xsecinfo neve="10" totxsec="7.1988749153E+00" />
</init>
<event>
 4 1  1.0000000000E+00  5.0000000000E+02 -1.0000000000E+00  1.1780000000E-01
 -11 -1 0 0 0 0  0.0000000000E+00  0.0000000000E+00  2.5000000000E+02  2.5000000000E+02  5.1099700000E-04  0.0000000000E+00  9.0000000000E+00
 11 -1 0 0 0 0  0.0000000000E+00  0.0000000000E+00 -2.5000000000E+02  2.5000000000E+02  5.1099700000E-04  0.0000000000E+00  9.0000000000E+00
 24 1 1 2 0 0 -1.7213604666E+02  7.7510684266E+01  1.4280777186E+02  2.5000000000E+02  8.0419000000E+01  0.0000000000E+00  9.0000000000E+00
 -24 1 1 2 0 0  1.7213604666E+02 -7.7510684266E+01 -1.4280777186E+02  2.5000000000E+02  8.0419000000E+01  0.0000000000E+00  9.0000000000E+00
<weight name="sqme_prc">1.5210038644E-01</weight>
</event>
<event>
 4 1  1.0000000000E+00  5.0000000000E+02 -1.0000000000E+00  1.1780000000E-01
 -11 -1 0 0 0 0  0.0000000000E+00  0.0000000000E+00  2.5000000000E+02  2.5000000000E+02  5.1099700000E-04  0.0000000000E+00  9.0000000000E+00
 11 -1 0 0 0 0  0.0000000000E+00  0.0000000000E+00 -2.5000000000E+02  2.5000000000E+02  5.1099700000E-04  0.0000000000E+00  9.0000000000E+00
 24 1 1 2 0 0 -3.7487142693E+00 -4.1630201486E+01  2.3299282801E+02  2.5000000000E+02  8.0419000000E+01  0.0000000000E+00  9.0000000000E+00
 -24 1 1 2 0 0  3.7487142693E+00  4.1630201486E+01 -2.3299282801E+02  2.5000000000E+02  8.0419000000E+01  0.0000000000E+00  9.0000000000E+00
<weight name="sqme_prc">5.3027251460E+00</weight>
</event>
<event>
 4 1  1.0000000000E+00  5.0000000000E+02 -1.0000000000E+00  1.1780000000E-01
 -11 -1 0 0 0 0  0.0000000000E+00  0.0000000000E+00  2.5000000000E+02  2.5000000000E+02  5.1099700000E-04  0.0000000000E+00  9.0000000000E+00
 11 -1 0 0 0 0  0.0000000000E+00  0.0000000000E+00 -2.5000000000E+02  2.5000000000E+02  5.1099700000E-04  0.0000000000E+00  9.0000000000E+00
 24 1 1 2 0 0 -4.9749508950E+01  1.5777744085E+01  2.3088705808E+02  2.5000000000E+02  8.0419000000E+01  0.0000000000E+00  9.0000000000E+00
 -24 1 1 2 0 0  4.9749508950E+01 -1.5777744085E+01 -2.3088705808E+02  2.5000000000E+02  8.0419000000E+01  0.0000000000E+00  9.0000000000E+00
<weight name="sqme_prc">3.5536127406E+00</weight>
</event>
<event>
 4 1  1.0000000000E+00  5.0000000000E+02 -1.0000000000E+00  1.1780000000E-01
 -11 -1 0 0 0 0  0.0000000000E+00  0.0000000000E+00  2.5000000000E+02  2.5000000000E+02  5.1099700000E-04  0.0000000000E+00  9.0000000000E+00
 11 -1 0 0 0 0  0.0000000000E+00  0.0000000000E+00 -2.5000000000E+02  2.5000000000E+02  5.1099700000E-04  0.0000000000E+00  9.0000000000E+00
 24 1 1 2 0 0 -2.2511809334E+01 -8.9148333344E+01  2.1812514193E+02  2.5000000000E+02  8.0419000000E+01  0.0000000000E+00  9.0000000000E+00
 -24 1 1 2 0 0  2.2511809334E+01  8.9148333344E+01 -2.1812514193E+02  2.5000000000E+02  8.0419000000E+01  0.0000000000E+00  9.0000000000E+00
<weight name="sqme_prc">1.1180965515E+00</weight>
</event>
<event>
 4 1  1.0000000000E+00  5.0000000000E+02 -1.0000000000E+00  1.1780000000E-01
 -11 -1 0 0 0 0  0.0000000000E+00  0.0000000000E+00  2.5000000000E+02  2.5000000000E+02  5.1099700000E-04  0.0000000000E+00  9.0000000000E+00
 11 -1 0 0 0 0  0.0000000000E+00  0.0000000000E+00 -2.5000000000E+02  2.5000000000E+02  5.1099700000E-04  0.0000000000E+00  9.0000000000E+00
 24 1 1 2 0 0  9.6302963066E+01  1.3966939692E+02  1.6507871852E+02  2.5000000000E+02  8.0419000000E+01  0.0000000000E+00  9.0000000000E+00
 -24 1 1 2 0 0 -9.6302963066E+01 -1.3966939692E+02 -1.6507871852E+02  2.5000000000E+02  8.0419000000E+01  0.0000000000E+00  9.0000000000E+00
<weight name="sqme_prc">2.2295577101E-01</weight>
</event>
<event>
 4 1  1.0000000000E+00  5.0000000000E+02 -1.0000000000E+00  1.1780000000E-01
 -11 -1 0 0 0 0  0.0000000000E+00  0.0000000000E+00  2.5000000000E+02  2.5000000000E+02  5.1099700000E-04  0.0000000000E+00  9.0000000000E+00
 11 -1 0 0 0 0  0.0000000000E+00  0.0000000000E+00 -2.5000000000E+02  2.5000000000E+02  5.1099700000E-04  0.0000000000E+00  9.0000000000E+00
 24 1 1 2 0 0  1.2193758280E+02 -1.9048750005E+02  6.9846421979E+01  2.5000000000E+02  8.0419000000E+01  0.0000000000E+00  9.0000000000E+00
 -24 1 1 2 0 0 -1.2193758280E+02  1.9048750005E+02 -6.9846421979E+01  2.5000000000E+02  8.0419000000E+01  0.0000000000E+00  9.0000000000E+00
<weight name="sqme_prc">6.2346666268E-02</weight>
</event>
<event>
 4 1  1.0000000000E+00  5.0000000000E+02 -1.0000000000E+00  1.1780000000E-01
 -11 -1 0 0 0 0  0.0000000000E+00  0.0000000000E+00  2.5000000000E+02  2.5000000000E+02  5.1099700000E-04  0.0000000000E+00  9.0000000000E+00
 11 -1 0 0 0 0  0.0000000000E+00  0.0000000000E+00 -2.5000000000E+02  2.5000000000E+02  5.1099700000E-04  0.0000000000E+00  9.0000000000E+00
 24 1 1 2 0 0  3.5179020067E+01  1.3600242926E+01  2.3368837023E+02  2.5000000000E+02  8.0419000000E+01  0.0000000000E+00  9.0000000000E+00
 -24 1 1 2 0 0 -3.5179020067E+01 -1.3600242926E+01 -2.3368837023E+02  2.5000000000E+02  8.0419000000E+01  0.0000000000E+00  9.0000000000E+00
<weight name="sqme_prc">6.3082122843E+00</weight>
</event>
<event>
 4 1  1.0000000000E+00  5.0000000000E+02 -1.0000000000E+00  1.1780000000E-01
 -11 -1 0 0 0 0  0.0000000000E+00  0.0000000000E+00  2.5000000000E+02  2.5000000000E+02  5.1099700000E-04  0.0000000000E+00  9.0000000000E+00
 11 -1 0 0 0 0  0.0000000000E+00  0.0000000000E+00 -2.5000000000E+02  2.5000000000E+02  5.1099700000E-04  0.0000000000E+00  9.0000000000E+00
 24 1 1 2 0 0 -1.1818435074E+02 -1.5060898140E+02  1.3921989227E+02  2.5000000000E+02  8.0419000000E+01  0.0000000000E+00  9.0000000000E+00
 -24 1 1 2 0 0  1.1818435074E+02  1.5060898140E+02 -1.3921989227E+02  2.5000000000E+02  8.0419000000E+01  0.0000000000E+00  9.0000000000E+00
<weight name="sqme_prc">1.4396082230E-01</weight>
</event>
<event>
 4 1  1.0000000000E+00  5.0000000000E+02 -1.0000000000E+00  1.1780000000E-01
 -11 -1 0 0 0 0  0.0000000000E+00  0.0000000000E+00  2.5000000000E+02  2.5000000000E+02  5.1099700000E-04  0.0000000000E+00  9.0000000000E+00
 11 -1 0 0 0 0  0.0000000000E+00  0.0000000000E+00 -2.5000000000E+02  2.5000000000E+02  5.1099700000E-04  0.0000000000E+00  9.0000000000E+00
 24 1 1 2 0 0 -1.1788837887E+00  1.5905542413E+01  2.3617452952E+02  2.5000000000E+02  8.0419000000E+01  0.0000000000E+00  9.0000000000E+00
 -24 1 1 2 0 0  1.1788837887E+00 -1.5905542413E+01 -2.3617452952E+02  2.5000000000E+02  8.0419000000E+01  0.0000000000E+00  9.0000000000E+00
<weight name="sqme_prc">1.7222885715E+01</weight>
</event>
<event>
 4 1  1.0000000000E+00  5.0000000000E+02 -1.0000000000E+00  1.1780000000E-01
 -11 -1 0 0 0 0  0.0000000000E+00  0.0000000000E+00  2.5000000000E+02  2.5000000000E+02  5.1099700000E-04  0.0000000000E+00  9.0000000000E+00
 11 -1 0 0 0 0  0.0000000000E+00  0.0000000000E+00 -2.5000000000E+02  2.5000000000E+02  5.1099700000E-04  0.0000000000E+00  9.0000000000E+00
 24 1 1 2 0 0 -1.6211041452E+01 -2.3889284600E+00  2.3614461585E+02  2.5000000000E+02  8.0419000000E+01  0.0000000000E+00  9.0000000000E+00
 -24 1 1 2 0 0  1.6211041452E+01  2.3889284600E+00 -2.3614461585E+02  2.5000000000E+02  8.0419000000E+01  0.0000000000E+00  9.0000000000E+00
<weight name="sqme_prc">1.6960511027E+01</weight>
</event>
</LesHouchesEvents>
