<LesHouchesEvents version="3.0">
<!--
file generated with POWHEG-BOX-V2
Input file powheg.input contained:
!Single vector boson production parameters
idvecbos -24   ! PDG code for vector boson to be produced ( W+:24 W-:-24 )
vdecaymode 1      !(1:electronic decay, 2: muonic decay, 3: tauonic decay)

numevts 100   ! number of events to be generated
ih1   1           ! hadron 1 (1 for protons, -1 for antiprotons)
ih2   1           ! hadron 2 (1 for protons, -1 for antiprotons)
ndns1 131         ! pdf set for hadron 1 (mlm numbering)
ndns2 131         ! pdf set for hadron 2 (mlm numbering)
ebeam1 4000d0    ! energy of beam 1
ebeam2 4000d0    ! energy of beam 2
! To be set only if using LHA pdfs
! lhans1 21100      ! MRST pdf set for hadron 1 (LHA numbering)
! lhans2 21100      ! MRST pdf set for hadron 2 (LHA numbering)
lhans1 10800      ! CT10 pdf set for hadron 1 (LHA numbering)
lhans2 10800      ! CT10 pdf set for hadron 2 (LHA numbering)


! To be set only if using different pdf sets for the two incoming hadrons
! QCDLambda5  0.25 ! for not equal pdf sets

! Parameters to allow or not the use of stored data
use-old-grid    1 ! if 1 use old grid if file pwggrids.dat is present (<> 1 regenerate)
use-old-ubound  1 ! if 1 use norm of upper bounding function stored in pwgubound.dat, if present; <>

ncall1 12000   ! number of calls for initializing the integration grid
itmx1    1     ! number of iterations for initializing the integration grid
ncall2 25000   ! number of calls for computing the integral and finding upper bound
itmx2    5     ! number of iterations for computing the integral and finding upper bound
foldcsi   1    ! number of folds on csi integration
foldy     1    ! number of folds on  y  integration
foldphi   1    ! number of folds on phi integration
nubound 10000  ! number of bbarra calls to setup norm of upper bounding function
icsimax  1     ! <= 100, number of csi subdivision when computing the upper bounds
iymax    1     ! <= 100, number of y subdivision when computing the upper bounds
xupbound 2d0   ! increase upper bound for radiation generation

! OPTIONAL PARAMETERS

#renscfact  1d0   ! (default 1d0) ren scale factor: muren  = muref * renscfact
#facscfact  1d0   ! (default 1d0) fac scale factor: mufact = muref * facscfact
#bornonly   1      ! (default 0) if 1 do Born only
#smartsig   0      ! (default 1) remember equal amplitudes (0 do not remember)
#ptsqmin    0.8    ! (default 0.8 GeV) minimum pt for generation of radiation
#charmthr   1.5    ! (default 1.5 GeV) charm treshold for gluon splitting
#bottomthr  5.0    ! (default 5.0 GeV) bottom treshold for gluon splitting
testplots  1      ! (default 0, do not) do NLO and PWHG distributions
#charmthrpdf  1.5  ! (default 1.5 GeV) pdf charm treshold
#bottomthrpdf 5.0  ! (default 5.0 GeV) pdf bottom treshold

#iseed    12345    ! initialize random number sequence
#rand1     -1      ! initialize random number sequence
#rand2     -1      ! initialize random number sequence

# Uncomment the following group for paralle runs
manyseeds 1 ! (default 0) allow for the generation of different statistically independent samples (s
parallelstage 4
xgriditeration 1      ! which grid iteration when in parallelstage 4
# End group for parallel run

# runningscale 0    ! default is 1, true, central scale equal to W virtuality, 0 equal to M_W





lhrwgt_group_name 'PDF reweighting'
lhrwgt_id 'ct10'
lhrwgt_descr 'original ct10'

End of powheg.input content
PDF package: lha
 Random number generator initialized with:            1             0             0
-->
<header>
<initrwgt>
<weightgroup name='PDF reweighting'>
<weight id='ct10'> original ct10 </weight>
</weightgroup>
</initrwgt>
</header>
<init>
     2212     2212  4.00000E+03  4.00000E+03     -1     -1     -1     -1     -4      1
  4.95879E+03  3.32876E+00  1.00000E+00  10011
</init>
<event>
      6  10011  5.01186E+03  9.38453E+00 -1.00000E+00  1.98941E-01
       3    -1     0     0   501     0  0.000000000E+00  0.000000000E+00  4.546110922E+01  4.546110922E+01  1.012081904E-07  0.00000E+00  9.000E+00
      -4    -1     0     0     0   511  0.000000000E+00  0.000000000E+00 -4.490302406E+01  4.490302406E+01  2.317666366E-07  0.00000E+00  9.000E+00
     -24     2     1     2     0     0  8.263457409E+00  4.447992775E+00  9.867326765E-01  8.096982081E+01  8.041808797E+01  0.00000E+00  9.000E+00
      11     1     3     3     0     0  2.410011511E+01 -1.646512307E+01  2.999975005E+01  4.185571442E+01  5.109989100E-04  0.00000E+00  9.000E+00
     -12     1     3     3     0     0 -1.583665771E+01  2.091311585E+01 -2.901301738E+01  3.911410639E+01  6.721892955E-07  0.00000E+00  9.000E+00
      21     1     1     2   501   511 -8.263457409E+00 -4.447992775E+00 -4.286475243E-01  9.394312469E+00  8.746452518E-08  0.00000E+00  9.000E+00
#rwgt            1           9   1577.9467111209792                1          14           0
<rwgt>
<wgt id='ct10'>  0.501185669E+04 </wgt>
</rwgt>
</event>
<event>
      6  10011  5.01186E+03  1.91777E+01 -1.00000E+00  1.67845E-01
      -2    -1     0     0     0   511  0.000000000E+00  0.000000000E+00  2.194137659E+02  2.194137659E+02  1.437798882E-06  0.00000E+00  9.000E+00
       1    -1     0     0   501     0  0.000000000E+00  0.000000000E+00 -1.215880852E+01  1.215880852E+01  6.284077779E-08  0.00000E+00  9.000E+00
     -24     2     1     2     0     0  1.836371160E+01 -5.527998054E+00  1.434086904E+02  1.649082625E+02  7.912583596E+01  0.00000E+00  9.000E+00
      11     1     3     3     0     0 -2.065860291E+01  2.299787347E+01  3.831455761E+01  4.923093929E+01  5.109989100E-04  0.00000E+00  9.000E+00
     -12     1     3     3     0     0  3.902231451E+01 -2.852587152E+01  1.050941328E+02  1.156773233E+02  1.854061856E-06  0.00000E+00  9.000E+00
      21     1     1     2   501   511 -1.836371160E+01  5.527998054E+00  6.384626697E+01  6.666431184E+01  7.927158840E-07  0.00000E+00  9.000E+00
#rwgt            1           4   2098.4567682077409                1         175           0
<rwgt>
<wgt id='ct10'>  0.501185669E+04 </wgt>
</rwgt>
</event>
<event>
      6  10011  5.01186E+03  1.70211E+01 -1.00000E+00  1.72319E-01
      21    -1     0     0   511   501  0.000000000E+00  0.000000000E+00  2.622546369E+01  2.622546369E+01  5.879744307E-08  0.00000E+00  9.000E+00
       1    -1     0     0   501     0  0.000000000E+00  0.000000000E+00 -1.093534777E+03  1.093534777E+03  4.136284319E-06  0.00000E+00  9.000E+00
     -24     2     1     2     0     0 -7.515472677E+00  1.527207973E+01 -1.089050892E+03  1.092148377E+03  8.041463158E+01  0.00000E+00  9.000E+00
      11     1     3     3     0     0  1.305135779E+01  2.530502819E+01 -9.930398187E+02  9.934479170E+02  5.109989100E-04  0.00000E+00  9.000E+00
     -12     1     3     3     0     0 -2.056683047E+01 -1.003294846E+01 -9.601107360E+01  9.870046010E+01  4.434745796E-06  0.00000E+00  9.000E+00
       2     1     1     2   511     0  7.515472677E+00 -1.527207973E+01  2.174157901E+01  2.761186351E+01  0.000000000E+00  0.00000E+00  9.000E+00
#rwgt            1           4   7950.6136960273698                1         278           0
<rwgt>
<wgt id='ct10'>  0.501185669E+04 </wgt>
</rwgt>
</event>
<event>
      6  10011  5.01186E+03  1.38500E+01 -1.00000E+00  1.80661E-01
       1    -1     0     0   511     0  0.000000000E+00  0.000000000E+00  4.027488576E+02  4.027488576E+02  7.127097819E-07  0.00000E+00  9.000E+00
      -2    -1     0     0     0   501  0.000000000E+00  0.000000000E+00 -1.964628081E+01  1.964628081E+01  1.039300527E-07  0.00000E+00  9.000E+00
     -24     2     1     2     0     0 -4.885884627E+00  1.295953433E+01  1.724005117E+02  2.112383681E+02  1.212760914E+02  0.00000E+00  9.000E+00
      11     1     3     3     0     0 -5.682584553E+01  2.172862668E+01  5.281273340E+01  8.056360684E+01  5.109989100E-04  0.00000E+00  9.000E+00
     -12     1     3     3     0     0  5.193996091E+01 -8.769092351E+00  1.195877783E+02  1.306747613E+02  8.756565494E-07  0.00000E+00  9.000E+00
      21     1     1     2   511   501  4.885884627E+00 -1.295953433E+01  2.107020651E+02  2.111567703E+02  3.089637355E-06  0.00000E+00  9.000E+00
#rwgt            1           8   1193.9554189987093                1         360           0
<rwgt>
<wgt id='ct10'>  0.501185669E+04 </wgt>
</rwgt>
</event>
<event>
      6  10011  5.01186E+03  4.41556E+00 -1.00000E+00  2.53649E-01
      21    -1     0     0   501   511  0.000000000E+00  0.000000000E+00  2.321731174E+00  2.321731174E+00  1.578903961E-08  0.00000E+00  9.000E+00
      -2    -1     0     0     0   501  0.000000000E+00  0.000000000E+00 -7.788105929E+02  7.788105929E+02  6.176001043E-06  0.00000E+00  9.000E+00
     -24     2     1     2     0     0  4.192554917E+00  1.385522111E+00 -7.175648085E+02  7.220430590E+02  8.017123916E+01  0.00000E+00  9.000E+00
      11     1     3     3     0     0 -1.812497351E+00 -3.727306939E+01 -2.406323133E+02  2.435086796E+02  5.109989100E-04  0.00000E+00  9.000E+00
     -12     1     3     3     0     0  6.005052269E+00  3.865859150E+01 -4.769324952E+02  4.785343794E+02  5.319244641E-06  0.00000E+00  9.000E+00
      -1     1     1     2     0   511 -4.192554917E+00 -1.385522111E+00 -5.892405324E+01  5.908926500E+01  0.000000000E+00  0.00000E+00  9.000E+00
#rwgt            1           8   776.67804137104952                1         441           0
<rwgt>
<wgt id='ct10'>  0.501185669E+04 </wgt>
</rwgt>
</event>
<event>
      6  10011  5.01186E+03  2.38944E+01 -1.00000E+00  1.60198E-01
       1    -1     0     0   501     0  0.000000000E+00  0.000000000E+00  1.160092512E+02  1.160092512E+02  5.908246968E-07  0.00000E+00  9.000E+00
      -2    -1     0     0     0   511  0.000000000E+00  0.000000000E+00 -3.239367450E+01  3.239367450E+01  2.972965756E-07  0.00000E+00  9.000E+00
     -24     2     1     2     0     0  2.170007836E+00  2.379566092E+01  8.995748350E+01  1.236812309E+02  8.144787064E+01  0.00000E+00  9.000E+00
      11     1     3     3     0     0  5.731454665E+00 -5.968872548E-01  9.767916384E+01  9.784899027E+01  5.109989100E-04  0.00000E+00  9.000E+00
     -12     1     3     3     0     0 -3.561446829E+00  2.439254817E+01 -7.721680341E+00  2.583224066E+01  7.842029390E-07  0.00000E+00  9.000E+00
      21     1     1     2   501   511 -2.170007836E+00 -2.379566092E+01 -6.341906773E+00  2.472169481E+01  2.160510704E-07  0.00000E+00  9.000E+00
#rwgt            1           8   4412.1334897954221                1         619           0
<rwgt>
<wgt id='ct10'>  0.501185669E+04 </wgt>
</rwgt>
</event>
<event>
      6  10011  5.01186E+03  5.97761E+00 -1.00000E+00  2.25646E-01
      -4    -1     0     0     0   501  0.000000000E+00  0.000000000E+00  1.392964865E+01  1.392964865E+01  9.057559042E-08  0.00000E+00  9.000E+00
       3    -1     0     0   511     0  0.000000000E+00  0.000000000E+00 -1.502709626E+02  1.502709626E+02  1.162428854E-06  0.00000E+00  9.000E+00
     -24     2     1     2     0     0 -1.182907852E+00 -5.859398272E+00 -1.057834107E+02  1.330635390E+02  8.049871804E+01  0.00000E+00  9.000E+00
      11     1     3     3     0     0  6.979401426E+00 -2.175523738E+01 -1.118754722E+02  1.141846035E+02  5.109989100E-04  0.00000E+00  9.000E+00
     -12     1     3     3     0     0 -8.162309277E+00  1.589583911E+01  6.092061447E+00  1.887893552E+01  1.796394486E-07  0.00000E+00  9.000E+00
      21     1     1     2   511   501  1.182907852E+00  5.859398272E+00 -3.055790325E+01  3.113707228E+01  7.100967102E-08  0.00000E+00  9.000E+00
#rwgt            1           2   1563.7723289005216                1         767           0
<rwgt>
<wgt id='ct10'>  0.501185669E+04 </wgt>
</rwgt>
</event>
<event>
      6  10011  5.01186E+03  1.41948E+01 -1.00000E+00  1.79622E-01
       1    -1     0     0   501     0  0.000000000E+00  0.000000000E+00  2.056685049E+01  2.056685049E+01  9.498896449E-08  0.00000E+00  9.000E+00
      -2    -1     0     0     0   511  0.000000000E+00  0.000000000E+00 -1.161072386E+02  1.161072386E+02  7.112795346E-07  0.00000E+00  9.000E+00
     -24     2     1     2     0     0  1.296808030E+01 -5.772523918E+00 -8.142961966E+01  1.166589217E+02  8.232270598E+01  0.00000E+00  9.000E+00
      11     1     3     3     0     0  2.198825792E+00 -4.197009849E+01 -2.545415139E+01  4.913489417E+01  5.109989100E-04  0.00000E+00  9.000E+00
     -12     1     3     3     0     0  1.076925450E+01  3.619757457E+01 -5.597546827E+01  6.752402755E+01  9.743544625E-07  0.00000E+00  9.000E+00
      21     1     1     2   501   511 -1.296808030E+01  5.772523918E+00 -1.411076848E+01  2.001516740E+01  1.354778950E-07  0.00000E+00  9.000E+00
#rwgt            1           8   1992.3236796837894                1        1075           0
<rwgt>
<wgt id='ct10'>  0.501185669E+04 </wgt>
</rwgt>
</event>
<event>
      6  10011  5.01186E+03  1.53349E+01 -1.00000E+00  1.76438E-01
      -4    -1     0     0     0   501  0.000000000E+00  0.000000000E+00  2.114783039E+02  2.114783039E+02  1.659402497E-06  0.00000E+00  9.000E+00
       3    -1     0     0   511     0  0.000000000E+00  0.000000000E+00 -1.289167962E+01  1.289167962E+01  9.439895196E-08  0.00000E+00  9.000E+00
     -24     2     1     2     0     0 -5.572154871E+00 -1.428674207E+01  1.908541630E+02  2.071958499E+02  7.918111363E+01  0.00000E+00  9.000E+00
      11     1     3     3     0     0  3.474081630E+01 -1.749161707E+01  7.499148183E+01  8.447841932E+01  5.109989100E-04  0.00000E+00  9.000E+00
     -12     1     3     3     0     0 -4.031297117E+01  3.204874997E+00  1.158626812E+02  1.227174306E+02  9.363278257E-07  0.00000E+00  9.000E+00
      21     1     1     2   511   501  5.572154871E+00  1.428674207E+01  7.732461252E+00  1.717413363E+01  1.789975937E-07  0.00000E+00  9.000E+00
#rwgt            1           2   390.60743673600638                1        1170           0
<rwgt>
<wgt id='ct10'>  0.501185669E+04 </wgt>
</rwgt>
</event>
<event>
      6  10011  5.01186E+03  2.86431E+01 -1.00000E+00  1.54413E-01
      21    -1     0     0   511   501  0.000000000E+00  0.000000000E+00  5.483247484E+00  5.483247484E+00  1.924901847E-08  0.00000E+00  9.000E+00
       1    -1     0     0   501     0  0.000000000E+00  0.000000000E+00 -7.250189578E+02  7.250189578E+02  7.137280869E-06  0.00000E+00  9.000E+00
     -24     2     1     2     0     0  1.684061292E+01  2.316943654E+01 -6.444627166E+02  6.501505817E+02  8.088978126E+01  0.00000E+00  9.000E+00
      11     1     3     3     0     0 -2.092174872E+01 -1.911407336E+01 -2.580528214E+02  2.596041718E+02  5.109989100E-04  0.00000E+00  9.000E+00
     -12     1     3     3     0     0  3.776236164E+01  4.228350991E+01 -3.864098952E+02  3.905464099E+02  4.406999946E-06  0.00000E+00  9.000E+00
       2     1     1     2   511     0 -1.684061292E+01 -2.316943654E+01 -7.507299370E+01  8.035162361E+01  0.000000000E+00  0.00000E+00  9.000E+00
#rwgt            1           4   4950.1945486538962                1        1248           0
<rwgt>
<wgt id='ct10'>  0.501185669E+04 </wgt>
</rwgt>
</event>
<event>
      6  10011  5.01186E+03  9.61709E+00 -1.00000E+00  1.97678E-01
      -2    -1     0     0     0   511  0.000000000E+00  0.000000000E+00  1.152576463E+01  1.152576463E+01  1.026853426E-07  0.00000E+00  9.000E+00
       1    -1     0     0   501     0  0.000000000E+00  0.000000000E+00 -2.511096345E+02  2.511096345E+02  1.557992914E-06  0.00000E+00  9.000E+00
     -24     2     1     2     0     0 -5.624062065E+00  7.801180727E+00 -2.396854338E+02  2.530177689E+02  8.047605673E+01  0.00000E+00  9.000E+00
      11     1     3     3     0     0 -2.046597072E+01 -2.963345475E+01 -1.566004534E+02  1.606882061E+02  5.109989100E-04  0.00000E+00  9.000E+00
     -12     1     3     3     0     0  1.484190865E+01  3.743463548E+01 -8.308498046E+01  9.232956279E+01  1.535334266E-06  0.00000E+00  9.000E+00
      21     1     1     2   501   511  5.624062065E+00 -7.801180727E+00  1.015640028E-01  9.617630171E+00  1.567864731E-07  0.00000E+00  9.000E+00
#rwgt            1           4   4472.8460017077477                1        1323           0
<rwgt>
<wgt id='ct10'>  0.501185669E+04 </wgt>
</rwgt>
</event>
<event>
      6  10011  5.01186E+03  1.77321E+01 -1.00000E+00  1.70757E-01
       1    -1     0     0   511     0  0.000000000E+00  0.000000000E+00  6.586712818E+02  6.586712818E+02  2.341773562E-06  0.00000E+00  9.000E+00
      -2    -1     0     0     0   501  0.000000000E+00  0.000000000E+00 -3.929473842E+00  3.929473842E+00  2.403255462E-08  0.00000E+00  9.000E+00
     -24     2     1     2     0     0 -5.519825630E+00  1.685103639E+01  4.725423540E+02  4.795404734E+02  7.967661782E+01  0.00000E+00  9.000E+00
      11     1     3     3     0     0 -1.949102240E+01  3.717831400E+01  4.124822999E+02  4.146128009E+02  5.109989100E-04  0.00000E+00  9.000E+00
     -12     1     3     3     0     0  1.397119677E+01 -2.032727761E+01  6.006005412E+01  6.492767249E+01  1.507321712E-06  0.00000E+00  9.000E+00
      21     1     1     2   511   501  5.519825630E+00 -1.685103639E+01  1.821994540E+02  1.830602822E+02  2.628466379E-06  0.00000E+00  9.000E+00
#rwgt            1           8   6706.0326892110825                1        1427           0
<rwgt>
<wgt id='ct10'>  0.501185669E+04 </wgt>
</rwgt>
</event>
<event>
      6  10011  5.01186E+03  5.13076E+00 -1.00000E+00  2.36487E-01
       1    -1     0     0   501     0  0.000000000E+00  0.000000000E+00  3.159571193E+02  3.159571193E+02  1.463900434E-06  0.00000E+00  9.000E+00
      -2    -1     0     0     0   511  0.000000000E+00  0.000000000E+00 -5.931085006E+00  5.931085006E+00  3.872035414E-08  0.00000E+00  9.000E+00
     -24     2     1     2     0     0  4.034523558E+00 -3.169750164E+00  2.991841051E+02  3.098935337E+02  8.060117078E+01  0.00000E+00  9.000E+00
      11     1     3     3     0     0 -7.051860634E+00 -3.291336539E+01  2.433511984E+02  2.456681178E+02  5.109989100E-04  0.00000E+00  9.000E+00
     -12     1     3     3     0     0  1.108638419E+01  2.974361523E+01  5.583290678E+01  6.422541585E+01  9.266658228E-07  0.00000E+00  9.000E+00
      21     1     1     2   501   511 -4.034523558E+00  3.169750164E+00  1.084192916E+01  1.199467067E+01  4.899235478E-08  0.00000E+00  9.000E+00
#rwgt            1           8   5933.4819591035721                1        1528           0
<rwgt>
<wgt id='ct10'>  0.501185669E+04 </wgt>
</rwgt>
</event>
<event>
      6  10011  5.01186E+03  3.33197E+00 -1.00000E+00  2.83563E-01
      -4    -1     0     0     0   501  0.000000000E+00  0.000000000E+00  1.495989605E+02  1.495989605E+02  4.574205992E-07  0.00000E+00  9.000E+00
       3    -1     0     0   511     0  0.000000000E+00  0.000000000E+00 -1.301705892E+01  1.301705892E+01  1.099650979E-07  0.00000E+00  9.000E+00
     -24     2     1     2     0     0  3.286097237E+00 -5.509670277E-01  1.366538860E+02  1.592832756E+02  8.176659050E+01  0.00000E+00  9.000E+00
      11     1     3     3     0     0  4.003454775E+01 -1.316443053E+01  5.968619992E+01  7.306510594E+01  5.109989100E-04  0.00000E+00  9.000E+00
     -12     1     3     3     0     0 -3.674845051E+01  1.261346350E+01  7.696768607E+01  8.621816964E+01  2.458993201E-06  0.00000E+00  9.000E+00
      21     1     1     2   511   501 -3.286097237E+00  5.509670277E-01 -7.198442802E-02  3.332743836E+00  3.450783587E-08  0.00000E+00  9.000E+00
#rwgt            1           2   733.39137577251518                1        1676           0
<rwgt>
<wgt id='ct10'>  0.501185669E+04 </wgt>
</rwgt>
</event>
<event>
      6  10011  5.01186E+03  6.95599E+00 -1.00000E+00  2.15870E-01
      21    -1     0     0   511   501  0.000000000E+00  0.000000000E+00  1.289943132E+03  1.289943132E+03  1.741682686E-06  0.00000E+00  9.000E+00
       1    -1     0     0   501     0  0.000000000E+00  0.000000000E+00 -2.091802031E+00  2.091802031E+00  1.132864890E-08  0.00000E+00  9.000E+00
     -24     2     1     2     0     0 -6.286154045E+00 -2.978258074E+00  7.955679228E+02  7.997023851E+02  8.091476508E+01  0.00000E+00  9.000E+00
      11     1     3     3     0     0  5.302704546E+00  3.738333260E+01  3.019568952E+02  3.043083942E+02  5.109989100E-04  0.00000E+00  9.000E+00
     -12     1     3     3     0     0 -1.158885859E+01 -4.036159067E+01  4.936110276E+02  4.953939909E+02  5.075228276E-06  0.00000E+00  9.000E+00
       2     1     1     2   511     0  6.286154045E+00  2.978258074E+00  4.922834070E+02  4.923325488E+02  0.000000000E+00  0.00000E+00  9.000E+00
#rwgt            1           4   668.59244301006186                1        1936           0
<rwgt>
<wgt id='ct10'>  0.501185669E+04 </wgt>
</rwgt>
</event>
<event>
      6  10011  5.01186E+03  2.38237E+00 -1.00000E+00  3.30797E-01
      -2    -1     0     0     0   501  0.000000000E+00  0.000000000E+00  2.863653745E+01  2.863653745E+01  9.349233778E-08  0.00000E+00  9.000E+00
      21    -1     0     0   501   511  0.000000000E+00  0.000000000E+00 -6.504826070E+01  6.504826070E+01  5.014321810E-07  0.00000E+00  9.000E+00
     -24     2     1     2     0     0 -2.382354251E+00 -9.708266989E-03 -3.201837361E+01  8.868707595E+01  8.267130994E+01  0.00000E+00  9.000E+00
      11     1     3     3     0     0  2.146785200E+00 -2.049841414E+01 -5.430023077E+01  5.808019224E+01  5.109989100E-04  0.00000E+00  9.000E+00
     -12     1     3     3     0     0 -4.529139451E+00  2.048870587E+01  2.228185716E+01  3.060688372E+01  3.676780573E-07  0.00000E+00  9.000E+00
      -1     1     1     2     0   511  2.382354251E+00  9.708266989E-03 -4.393349649E+00  4.997722198E+00  0.000000000E+00  0.00000E+00  9.000E+00
#rwgt            1           4   3577.7129961700607                1        2053           0
<rwgt>
<wgt id='ct10'>  0.501185669E+04 </wgt>
</rwgt>
</event>
<event>
      6  10011  5.01186E+03  3.15634E+01 -1.00000E+00  1.51489E-01
       1    -1     0     0   501     0  0.000000000E+00  0.000000000E+00  1.158588898E+02  1.158588898E+02  8.267721913E-07  0.00000E+00  9.000E+00
      21    -1     0     0   511   501  0.000000000E+00  0.000000000E+00 -5.243958133E+01  5.243958133E+01  3.974647604E-07  0.00000E+00  9.000E+00
     -24     2     1     2     0     0  1.451284183E+01 -2.802903644E+01  9.150223942E+01  1.260503887E+02  8.074522410E+01  0.00000E+00  9.000E+00
      11     1     3     3     0     0  3.539373972E+01 -2.786843573E+01  9.475369324E+01  1.049172479E+02  5.109989100E-04  0.00000E+00  9.000E+00
     -12     1     3     3     0     0 -2.088089789E+01 -1.606007159E-01 -3.251453825E+00  2.113314083E+01  7.505500043E-07  0.00000E+00  9.000E+00
       2     1     1     2   511     0 -1.451284183E+01  2.802903644E+01 -2.808293091E+01  4.224808245E+01  0.000000000E+00  0.00000E+00  9.000E+00
#rwgt            1           8   4064.1458514869082                1        2530           0
<rwgt>
<wgt id='ct10'>  0.501185669E+04 </wgt>
</rwgt>
</event>
<event>
      6  10011  5.01186E+03  2.24821E+01 -1.00000E+00  1.62244E-01
      21    -1     0     0   511   501  0.000000000E+00  0.000000000E+00  2.756014145E+00  2.756014145E+00  1.001969180E-08  0.00000E+00  9.000E+00
       1    -1     0     0   501     0  0.000000000E+00  0.000000000E+00 -1.571524985E+03  1.571524985E+03  1.231576471E-05  0.00000E+00  9.000E+00
     -24     2     1     2     0     0  1.047765732E+01 -1.989126484E+01 -1.484872010E+03  1.487423968E+03  8.414114637E+01  0.00000E+00  9.000E+00
      11     1     3     3     0     0 -1.132787643E+01 -4.561069775E+01 -1.123422157E+03  1.124404731E+03  5.109989100E-04  0.00000E+00  9.000E+00
     -12     1     3     3     0     0  2.180553376E+01  2.571943291E+01 -3.614498529E+02  3.630192373E+02  6.508533794E-06  0.00000E+00  9.000E+00
       2     1     1     2   511     0 -1.047765732E+01  1.989126484E+01 -8.389696133E+01  8.685703104E+01  0.000000000E+00  0.00000E+00  9.000E+00
#rwgt            1           4   18435.354916909568                1        2600           0
<rwgt>
<wgt id='ct10'>  0.501185669E+04 </wgt>
</rwgt>
</event>
<event>
      6  10011  5.01186E+03  1.57428E+01 -1.00000E+00  1.75382E-01
       1    -1     0     0   501     0  0.000000000E+00  0.000000000E+00  3.962419750E+02  3.962419750E+02  3.211924921E-06  0.00000E+00  9.000E+00
      21    -1     0     0   511   501  0.000000000E+00  0.000000000E+00 -9.920356951E+00  9.920356951E+00  6.581061648E-08  0.00000E+00  9.000E+00
     -24     2     1     2     0     0 -1.291137501E+01 -9.007384356E+00  3.808384780E+02  3.894919570E+02  8.011367962E+01  0.00000E+00  9.000E+00
      11     1     3     3     0     0  2.419370348E+01  8.488607873E+00  2.715503843E+02  2.727581400E+02  5.109989100E-04  0.00000E+00  9.000E+00
     -12     1     3     3     0     0 -3.710507849E+01 -1.749599223E+01  1.092880937E+02  1.167338169E+02  2.130398302E-06  0.00000E+00  9.000E+00
       2     1     1     2   511     0  1.291137501E+01  9.007384356E+00  5.483140109E+00  1.667037501E+01  0.000000000E+00  0.00000E+00  9.000E+00
#rwgt            1           8   5698.2900641465449                1        2682           0
<rwgt>
<wgt id='ct10'>  0.501185669E+04 </wgt>
</rwgt>
</event>
<event>
      6  10011  5.01186E+03  5.97139E+01 -1.00000E+00  1.34787E-01
      21    -1     0     0   511   501  0.000000000E+00  0.000000000E+00  3.560549118E+02  3.560549118E+02  3.463716120E-07  0.00000E+00  9.000E+00
       3    -1     0     0   501     0  0.000000000E+00  0.000000000E+00 -1.409111816E+02  1.409111816E+02  1.323502920E-06  0.00000E+00  9.000E+00
     -24     2     1     2     0     0  2.534584102E+01  5.406793342E+01 -1.205075925E+02  1.560444550E+02  7.913304613E+01  0.00000E+00  9.000E+00
      11     1     3     3     0     0 -4.177340384E+00  2.423585836E+01 -1.100849801E+02  1.127986252E+02  5.109989100E-04  0.00000E+00  9.000E+00
     -12     1     3     3     0     0  2.952318140E+01  2.983207506E+01 -1.042261243E+01  4.324582977E+01  6.188562917E-07  0.00000E+00  9.000E+00
       4     1     1     2   511     0 -2.534584102E+01 -5.406793342E+01  3.356513227E+02  3.409216384E+02  0.000000000E+00  0.00000E+00  9.000E+00
#rwgt            1           2   1504.7397873968728                1        2768           0
<rwgt>
<wgt id='ct10'>  0.501185669E+04 </wgt>
</rwgt>
</event>
<event>
      6  10011  5.01186E+03  4.53651E+00 -1.00000E+00  2.51124E-01
      21    -1     0     0   501   511  0.000000000E+00  0.000000000E+00  1.497209511E+01  1.497209511E+01  9.255947535E-08  0.00000E+00  9.000E+00
      -2    -1     0     0     0   501  0.000000000E+00  0.000000000E+00 -3.964120705E+02  3.964120705E+02  3.303370297E-06  0.00000E+00  9.000E+00
     -24     2     1     2     0     0 -2.472690733E-01 -4.529769384E+00 -3.912521676E+02  4.005740284E+02  8.579460119E+01  0.00000E+00  9.000E+00
      11     1     3     3     0     0 -1.876314173E+01  3.206891990E+01 -1.046107128E+02  1.110129377E+02  5.109989100E-04  0.00000E+00  9.000E+00
     -12     1     3     3     0     0  1.851587266E+01 -3.659868928E+01 -2.866414548E+02  2.895610907E+02  3.193962033E-06  0.00000E+00  9.000E+00
      -1     1     1     2     0   511  2.472690733E-01  4.529769384E+00  9.812192175E+00  1.081013728E+01  0.000000000E+00  0.00000E+00  9.000E+00
#rwgt            1           8   902.88287852077633                1        2823           0
<rwgt>
<wgt id='ct10'>  0.501185669E+04 </wgt>
</rwgt>
</event>
<event>
      6  10011  5.01186E+03  4.37466E+00 -1.00000E+00  2.54532E-01
      21    -1     0     0   511   501  0.000000000E+00  0.000000000E+00  1.264671883E+00  1.264671883E+00  6.089213132E-09  0.00000E+00  9.000E+00
       1    -1     0     0   501     0  0.000000000E+00  0.000000000E+00 -1.728456536E+03  1.728456536E+03  4.118071490E-06  0.00000E+00  9.000E+00
     -24     2     1     2     0     0 -4.142479735E+00  1.406250346E+00 -1.712737009E+03  1.714618873E+03  8.019152339E+01  0.00000E+00  9.000E+00
      11     1     3     3     0     0 -2.096477524E+01  3.031594663E+00 -1.631737055E+03  1.631874545E+03  5.109989100E-04  0.00000E+00  9.000E+00
     -12     1     3     3     0     0  1.682229550E+01 -1.625344317E+00 -8.099995385E+01  8.274432847E+01  4.109204409E-06  0.00000E+00  9.000E+00
       2     1     1     2   511     0  4.142479735E+00 -1.406250346E+00 -1.445485506E+01  1.510233470E+01  0.000000000E+00  0.00000E+00  9.000E+00
#rwgt            1           4   12597.922159142636                1        3003           0
<rwgt>
<wgt id='ct10'>  0.501185669E+04 </wgt>
</rwgt>
</event>
<event>
      6  10011  5.01186E+03  7.49402E+00 -1.00000E+00  2.11383E-01
      -2    -1     0     0     0   501  0.000000000E+00  0.000000000E+00  1.487925085E+02  1.487925085E+02  1.214055492E-06  0.00000E+00  9.000E+00
       1    -1     0     0   511     0  0.000000000E+00  0.000000000E+00 -1.791805126E+01  1.791805126E+01  1.369777924E-07  0.00000E+00  9.000E+00
     -24     2     1     2     0     0  6.914921404E+00 -2.888640768E+00  1.346492922E+02  1.583195072E+02  8.293656663E+01  0.00000E+00  9.000E+00
      11     1     3     3     0     0  5.174289704E+00 -3.296857838E+01  1.815301769E+01  3.798989979E+01  5.109989100E-04  0.00000E+00  9.000E+00
     -12     1     3     3     0     0  1.740631700E+00  3.007993761E+01  1.164962745E+02  1.203296074E+02  6.437734409E-07  0.00000E+00  9.000E+00
      21     1     1     2   511   501 -6.914921404E+00  2.888640768E+00 -3.774834991E+00  8.391052539E+00  1.987961465E-07  0.00000E+00  9.000E+00
#rwgt            1           4   2284.2777798193392                1        3191           0
<rwgt>
<wgt id='ct10'>  0.501185669E+04 </wgt>
</rwgt>
</event>
<event>
      6  10011  5.01186E+03  2.53022E+01 -1.00000E+00  1.58323E-01
      21    -1     0     0   501   511  0.000000000E+00  0.000000000E+00  2.686748004E+02  2.686748004E+02  1.607973531E-06  0.00000E+00  9.000E+00
      -4    -1     0     0     0   501  0.000000000E+00  0.000000000E+00 -1.426749201E+01  1.426749201E+01  6.684250493E-08  0.00000E+00  9.000E+00
     -24     2     1     2     0     0 -2.427097483E+01 -7.149832207E+00  1.237578941E+02  1.498653606E+02  8.064372040E+01  0.00000E+00  9.000E+00
      11     1     3     3     0     0  2.027371154E+01  2.256221308E+01  3.614749844E+01  4.718811802E+01  5.109989100E-04  0.00000E+00  9.000E+00
     -12     1     3     3     0     0 -4.454468637E+01 -2.971204529E+01  8.761039566E+01  1.026772426E+02  8.922756869E-07  0.00000E+00  9.000E+00
      -3     1     1     2     0   511  2.427097483E+01  7.149832207E+00  1.306494143E+02  1.330769318E+02  0.000000000E+00  0.00000E+00  9.000E+00
#rwgt            1           9   553.31855596963794                1        3374           0
<rwgt>
<wgt id='ct10'>  0.501185669E+04 </wgt>
</rwgt>
</event>
<event>
      6  10011  5.01186E+03  1.21139E+00 -1.00000E+00  5.32389E-01
       1    -1     0     0   501     0  0.000000000E+00  0.000000000E+00  1.111425461E+03  1.111425461E+03  1.049251251E-05  0.00000E+00  9.000E+00
      -2    -1     0     0     0   511  0.000000000E+00  0.000000000E+00 -1.673719226E+00  1.673719226E+00  1.300024345E-08  0.00000E+00  9.000E+00
     -24     2     1     2     0     0  1.083054210E+00  5.426516124E-01  1.108525501E+03  1.111375479E+03  7.953114619E+01  0.00000E+00  9.000E+00
      11     1     3     3     0     0 -7.456802195E-01  3.909908891E+01  6.763610414E+02  6.774906295E+02  5.109989100E-04  0.00000E+00  9.000E+00
     -12     1     3     3     0     0  1.828734430E+00 -3.855643730E+01  4.321644594E+02  4.338848500E+02  7.403373970E-06  0.00000E+00  9.000E+00
      21     1     1     2   501   511 -1.083054210E+00 -5.426516124E-01  1.226241188E+00  1.723700857E+00  9.205412280E-08  0.00000E+00  9.000E+00
#rwgt            1           8   5689.3408198008665                1        3456           0
<rwgt>
<wgt id='ct10'>  0.501185669E+04 </wgt>
</rwgt>
</event>
<event>
      6  10011  5.01186E+03  9.94426E+00 -1.00000E+00  1.95980E-01
      -2    -1     0     0     0   511  0.000000000E+00  0.000000000E+00  9.619558307E+01  9.619558307E+01  9.091839050E-07  0.00000E+00  9.000E+00
       1    -1     0     0   501     0  0.000000000E+00  0.000000000E+00 -3.733041327E+01  3.733041327E+01  2.726807574E-07  0.00000E+00  9.000E+00
     -24     2     1     2     0     0 -8.874826443E+00  4.486164505E+00  9.935255952E+00  8.359579820E+01  8.240546068E+01  0.00000E+00  9.000E+00
      11     1     3     3     0     0  3.223779785E+01 -1.056496510E+01  1.900441488E+01  3.888523991E+01  5.109989100E-04  0.00000E+00  9.000E+00
     -12     1     3     3     0     0 -4.111262429E+01  1.505112961E+01 -9.069158931E+00  4.471055829E+01  6.357488059E-07  0.00000E+00  9.000E+00
      21     1     1     2   501   511  8.874826443E+00 -4.486164505E+00  4.892991386E+01  4.993019814E+01  5.332632394E-07  0.00000E+00  9.000E+00
#rwgt            1           4   1119.6359050420629                1        3967           0
<rwgt>
<wgt id='ct10'>  0.501185669E+04 </wgt>
</rwgt>
</event>
<event>
      6  10011  5.01186E+03  8.10601E+00 -1.00000E+00  2.06860E-01
       1    -1     0     0   511     0  0.000000000E+00  0.000000000E+00  5.391612058E+02  5.391612058E+02  4.060628877E-06  0.00000E+00  9.000E+00
      -2    -1     0     0     0   501  0.000000000E+00  0.000000000E+00 -3.602428932E+00  3.602428932E+00  2.823426106E-08  0.00000E+00  9.000E+00
     -24     2     1     2     0     0  5.332233795E+00  6.105298089E+00  4.675594671E+02  4.742828819E+02  7.916242409E+01  0.00000E+00  9.000E+00
      11     1     3     3     0     0 -1.045273548E+01 -2.800013375E+01  3.397685158E+02  3.410805059E+02  5.109989100E-04  0.00000E+00  9.000E+00
     -12     1     3     3     0     0  1.578496927E+01  3.410543184E+01  1.277909513E+02  1.332023760E+02  2.417214934E-06  0.00000E+00  9.000E+00
      21     1     1     2   511   501 -5.332233795E+00 -6.105298089E+00  6.799930975E+01  6.848075284E+01  9.381336470E-07  0.00000E+00  9.000E+00
#rwgt            1           8   6038.3169008140230                1        4086           0
<rwgt>
<wgt id='ct10'>  0.501185669E+04 </wgt>
</rwgt>
</event>
<event>
      6  10011  5.01186E+03  1.95063E+01 -1.00000E+00  1.67228E-01
       3    -1     0     0   511     0  0.000000000E+00  0.000000000E+00  5.329548711E+01  5.329548711E+01  3.336946480E-07  0.00000E+00  9.000E+00
      -4    -1     0     0     0   501  0.000000000E+00  0.000000000E+00 -5.090518953E+01  5.090518953E+01  3.633822665E-07  0.00000E+00  9.000E+00
     -24     2     1     2     0     0  8.350054143E+00  1.762873884E+01 -3.214508789E+00  8.390511822E+01  8.154287191E+01  0.00000E+00  9.000E+00
      11     1     3     3     0     0 -1.067601617E+01 -1.535684825E+01  2.867564838E+01  3.423598866E+01  5.109989100E-04  0.00000E+00  9.000E+00
     -12     1     3     3     0     0  1.902607031E+01  3.298558709E+01 -3.189015717E+01  4.966912956E+01  5.524955428E-07  0.00000E+00  9.000E+00
      21     1     1     2   511   501 -8.350054143E+00 -1.762873884E+01  5.604806370E+00  2.029555843E+01  1.686965461E-07  0.00000E+00  9.000E+00
#rwgt            1           9   1473.8879635793519                1        4251           0
<rwgt>
<wgt id='ct10'>  0.501185669E+04 </wgt>
</rwgt>
</event>
<event>
      6  10011  5.01186E+03  5.77023E+00 -1.00000E+00  2.28058E-01
       1    -1     0     0   501     0  0.000000000E+00  0.000000000E+00  5.126290703E+02  5.126290703E+02  4.103079932E-06  0.00000E+00  9.000E+00
      -2    -1     0     0     0   511  0.000000000E+00  0.000000000E+00 -3.596872674E+00  3.596872674E+00  1.724548738E-08  0.00000E+00  9.000E+00
     -24     2     1     2     0     0 -5.470632902E+00 -1.835128892E+00  4.849523944E+02  4.914644315E+02  7.953091957E+01  0.00000E+00  9.000E+00
      11     1     3     3     0     0 -2.054661861E+01 -3.622684259E+01  2.833905010E+02  2.864345017E+02  5.109989100E-04  0.00000E+00  9.000E+00
     -12     1     3     3     0     0  1.507598571E+01  3.439171370E+01  2.015618933E+02  2.050299299E+02  3.328606492E-06  0.00000E+00  9.000E+00
      21     1     1     2   501   511  5.470632902E+00  1.835128892E+00  2.407980331E+01  2.476151146E+01  3.280002789E-07  0.00000E+00  9.000E+00
#rwgt            1           8   4021.6139217720583                1        4298           0
<rwgt>
<wgt id='ct10'>  0.501185669E+04 </wgt>
</rwgt>
</event>
<event>
      6  10011  5.01186E+03  1.08360E+01 -1.00000E+00  1.91755E-01
       3    -1     0     0   501     0  0.000000000E+00  0.000000000E+00  1.939645084E+02  1.939645084E+02  1.529141491E-06  0.00000E+00  9.000E+00
      -4    -1     0     0     0   511  0.000000000E+00  0.000000000E+00 -1.077998655E+01  1.077998655E+01  1.960185061E-08  0.00000E+00  9.000E+00
     -24     2     1     2     0     0  4.944928494E+00 -9.641897273E+00  1.684820409E+02  1.864802827E+02  7.919140896E+01  0.00000E+00  9.000E+00
      11     1     3     3     0     0  9.917206500E+00 -1.084076302E+01  1.764234999E+02  1.770342466E+02  5.109989100E-04  0.00000E+00  9.000E+00
     -12     1     3     3     0     0 -4.972278005E+00  1.198865746E+00 -7.941459053E+00  9.446036181E+00  7.899024449E-07  0.00000E+00  9.000E+00
      21     1     1     2   501   511 -4.944928494E+00  9.641897273E+00  1.470248092E+01  1.826421217E+01  2.614045985E-07  0.00000E+00  9.000E+00
#rwgt            1           9   1219.3923946366187                1        4466           0
<rwgt>
<wgt id='ct10'>  0.501185669E+04 </wgt>
</rwgt>
</event>
<event>
      6  10011  5.01186E+03  4.34114E+00 -1.00000E+00  2.55266E-01
      -2    -1     0     0     0   501  0.000000000E+00  0.000000000E+00  7.194113752E+01  7.194113752E+01  1.996133821E-07  0.00000E+00  9.000E+00
       1    -1     0     0   511     0  0.000000000E+00  0.000000000E+00 -2.329237152E+01  2.329237152E+01  2.279197199E-07  0.00000E+00  9.000E+00
     -24     2     1     2     0     0 -3.616421390E+00 -2.401454443E+00  4.758056148E+01  9.076287732E+01  7.716958327E+01  0.00000E+00  9.000E+00
      11     1     3     3     0     0 -2.181337162E+01  3.164765477E+01  2.737105860E+01  4.718656676E+01  5.109989100E-04  0.00000E+00  9.000E+00
     -12     1     3     3     0     0  1.819695023E+01 -3.404910921E+01  2.020950288E+01  4.357631056E+01  7.559501247E-07  0.00000E+00  9.000E+00
      21     1     1     2   511   501  3.616421390E+00  2.401454443E+00  1.068204522E+00  4.470631724E+00  2.049062716E-08  0.00000E+00  9.000E+00
#rwgt            1           4   1204.8240945344380                1        4569           0
<rwgt>
<wgt id='ct10'>  0.501185669E+04 </wgt>
</rwgt>
</event>
<event>
      6  10011  5.01186E+03  3.97203E+01 -1.00000E+00  1.44998E-01
      -2    -1     0     0     0   501  0.000000000E+00  0.000000000E+00  3.235257871E+01  3.235257871E+01  9.441669163E-08  0.00000E+00  9.000E+00
      21    -1     0     0   501   511  0.000000000E+00  0.000000000E+00 -2.052361768E+02  2.052361768E+02  1.630986681E-06  0.00000E+00  9.000E+00
     -24     2     1     2     0     0  3.897108544E+01  7.678219094E+00 -1.764859168E+02  1.977054601E+02  7.976508986E+01  0.00000E+00  9.000E+00
      11     1     3     3     0     0  6.295536493E+01  1.239425765E+00 -1.102097885E+02  1.269295538E+02  5.109989100E-04  0.00000E+00  9.000E+00
     -12     1     3     3     0     0 -2.398427949E+01  6.438793330E+00 -6.627612840E+01  7.077590633E+01  1.099311854E-06  0.00000E+00  9.000E+00
      -1     1     1     2     0   511 -3.897108544E+01 -7.678219094E+00  3.602318800E+00  3.988329537E+01  0.000000000E+00  0.00000E+00  9.000E+00
#rwgt            1           4   2571.8650842261609                1        4792           0
<rwgt>
<wgt id='ct10'>  0.501185669E+04 </wgt>
</rwgt>
</event>
<event>
      6  10011  5.01186E+03  1.41308E+00 -1.00000E+00  4.65659E-01
       1    -1     0     0   511     0  0.000000000E+00  0.000000000E+00  1.399919473E+03  1.399919473E+03  7.696428409E-06  0.00000E+00  9.000E+00
      -2    -1     0     0     0   501  0.000000000E+00  0.000000000E+00 -1.692316587E+00  1.692316587E+00  1.181611699E-08  0.00000E+00  9.000E+00
     -24     2     1     2     0     0 -8.123888609E-01  1.156207102E+00  9.263668801E+02  9.297493974E+02  7.922340970E+01  0.00000E+00  9.000E+00
      11     1     3     3     0     0 -3.001111004E+01 -2.250366686E+01  6.111574039E+02  6.123074833E+02  5.109989100E-04  0.00000E+00  9.000E+00
     -12     1     3     3     0     0  2.919872118E+01  2.365987396E+01  3.152094762E+02  3.174419142E+02  2.182608690E-06  0.00000E+00  9.000E+00
      21     1     1     2   511   501  8.123888609E-01 -1.156207102E+00  4.718602760E+02  4.718623918E+02  3.366285243E-06  0.00000E+00  9.000E+00
#rwgt            1           8   9331.1275646020240                1        4832           0
<rwgt>
<wgt id='ct10'>  0.501185669E+04 </wgt>
</rwgt>
</event>
<event>
      6  10011  5.01186E+03  5.05949E+01 -1.00000E+00  1.38754E-01
      21    -1     0     0   501   511  0.000000000E+00  0.000000000E+00  1.870424129E+01  1.870424129E+01  5.675075048E-08  0.00000E+00  9.000E+00
      -2    -1     0     0     0   501  0.000000000E+00  0.000000000E+00 -2.886761782E+02  2.886761782E+02  1.887815055E-06  0.00000E+00  9.000E+00
     -24     2     1     2     0     0 -4.484285809E+01  2.342998492E+01 -1.784441312E+02  2.027994206E+02  8.200884654E+01  0.00000E+00  9.000E+00
      11     1     3     3     0     0 -1.779726701E+01  4.503229692E+01 -1.511567317E+02  1.587230545E+02  5.109989100E-04  0.00000E+00  9.000E+00
     -12     1     3     3     0     0 -2.704559107E+01 -2.160231200E+01 -2.728739956E+01  4.407636617E+01  9.463866425E-07  0.00000E+00  9.000E+00
      -1     1     1     2     0   511  4.484285809E+01 -2.342998492E+01 -9.152780569E+01  1.045809989E+02  0.000000000E+00  0.00000E+00  9.000E+00
#rwgt            1           8   151.91914778545973                1        5138           0
<rwgt>
<wgt id='ct10'>  0.501185669E+04 </wgt>
</rwgt>
</event>
<event>
      6  10011  5.01186E+03  7.64684E+00 -1.00000E+00  2.10200E-01
       1    -1     0     0   501     0  0.000000000E+00  0.000000000E+00  4.972655340E+01  4.972655340E+01  3.803265451E-07  0.00000E+00  9.000E+00
      21    -1     0     0   511   501  0.000000000E+00  0.000000000E+00 -4.174526350E+01  4.174526350E+01  2.754416539E-07  0.00000E+00  9.000E+00
     -24     2     1     2     0     0 -1.968851816E+00  7.389034176E+00  1.372582758E+01  8.190761715E+01  8.038647399E+01  0.00000E+00  9.000E+00
      11     1     3     3     0     0  2.780401410E+01  3.178740189E+01  8.196940170E+00  4.301966931E+01  5.109989100E-04  0.00000E+00  9.000E+00
     -12     1     3     3     0     0 -2.977286591E+01 -2.439836771E+01  5.528887409E+00  3.888794785E+01  8.807387808E-07  0.00000E+00  9.000E+00
       2     1     1     2   511     0  1.968851816E+00 -7.389034176E+00 -5.744537679E+00  9.564199740E+00  0.000000000E+00  0.00000E+00  9.000E+00
#rwgt            1           8   1726.7434625532142                1        5186           0
<rwgt>
<wgt id='ct10'>  0.501185669E+04 </wgt>
</rwgt>
</event>
<event>
      6  10011  5.01186E+03  1.70784E+00 -1.00000E+00  3.98169E-01
       1    -1     0     0   511     0  0.000000000E+00  0.000000000E+00  2.388466352E+03  2.388466352E+03  8.157386651E-06  0.00000E+00  9.000E+00
      -2    -1     0     0     0   501  0.000000000E+00  0.000000000E+00 -9.888531267E-01  9.888531267E-01  6.537070139E-09  0.00000E+00  9.000E+00
     -24     2     1     2     0     0 -1.705731887E+00 -8.489998322E-02  1.911168041E+03  1.913142686E+03  8.688346949E+01  0.00000E+00  9.000E+00
      11     1     3     3     0     0  3.412966681E+00  2.990072389E+01  1.639614348E+03  1.639890518E+03  5.109989100E-04  0.00000E+00  9.000E+00
     -12     1     3     3     0     0 -5.118698568E+00 -2.998562388E+01  2.715536936E+02  2.732521678E+02  2.871390893E-06  0.00000E+00  9.000E+00
      21     1     1     2   511   501  1.705731887E+00  8.489998322E-02  4.763094575E+02  4.763125193E+02  4.835567331E-06  0.00000E+00  9.000E+00
#rwgt            1           8   16868.037280889635                1        5337           0
<rwgt>
<wgt id='ct10'>  0.501185669E+04 </wgt>
</rwgt>
</event>
<event>
      6  10011  5.01186E+03  9.32163E-01 -1.00000E+00  7.10963E-01
       1    -1     0     0   511     0  0.000000000E+00  0.000000000E+00  8.297636822E+02  8.297636822E+02  5.575953325E-06  0.00000E+00  9.000E+00
      -2    -1     0     0     0   501  0.000000000E+00  0.000000000E+00 -4.764452863E-02  4.764452863E-02  3.566439225E-10  0.00000E+00  9.000E+00
     -24     2     1     2     0     0  9.121784774E-01 -1.919856746E-01  7.442247891E+02  7.443149963E+02  1.155024388E+01  0.00000E+00  9.000E+00
      11     1     3     3     0     0  2.888834014E+00  2.773744542E+00  6.629515040E+02  6.629636006E+02  5.109989100E-04  0.00000E+00  9.000E+00
     -12     1     3     3     0     0 -1.976655536E+00 -2.965730217E+00  8.127328504E+01  8.135139571E+01  4.329875957E-06  0.00000E+00  9.000E+00
      21     1     1     2   511   501 -9.121784774E-01  1.919856746E-01  8.549124864E+01  8.549633045E+01  1.411440502E-06  0.00000E+00  9.000E+00
#rwgt            1           8   23793.039929245031                1        5674           0
<rwgt>
<wgt id='ct10'>  0.501185669E+04 </wgt>
</rwgt>
</event>
<event>
      6  10011  5.01186E+03  6.96138E+00 -1.00000E+00  2.15822E-01
      21    -1     0     0   511   501  0.000000000E+00  0.000000000E+00  5.131830736E+01  5.131830736E+01  2.542702496E-07  0.00000E+00  9.000E+00
       3    -1     0     0   501     0  0.000000000E+00  0.000000000E+00 -4.210201432E+01  4.210201432E+01  2.305644920E-07  0.00000E+00  9.000E+00
     -24     2     1     2     0     0 -2.451403361E+00 -6.515477643E+00 -9.658639314E-01  8.108593284E+01  8.078078227E+01  0.00000E+00  9.000E+00
      11     1     3     3     0     0 -1.707545163E+01  2.757086325E+01 -2.128748746E+01  3.879279149E+01  5.109989100E-04  0.00000E+00  9.000E+00
     -12     1     3     3     0     0  1.462404827E+01 -3.408634089E+01  2.032162353E+01  4.229314136E+01  1.087281262E-06  0.00000E+00  9.000E+00
       4     1     1     2   511     0  2.451403361E+00  6.515477643E+00  1.018215698E+01  1.233438884E+01  0.000000000E+00  0.00000E+00  9.000E+00
#rwgt            1           2   1429.7234999315501                1        5926           0
<rwgt>
<wgt id='ct10'>  0.501185669E+04 </wgt>
</rwgt>
</event>
<event>
      6  10011  5.01186E+03  2.82364E+01 -1.00000E+00  1.54854E-01
       1    -1     0     0   501     0  0.000000000E+00  0.000000000E+00  1.359565432E+03  1.359565432E+03  2.623196681E-06  0.00000E+00  9.000E+00
      21    -1     0     0   511   501  0.000000000E+00  0.000000000E+00 -4.511925504E+00  4.511925504E+00  1.493441536E-08  0.00000E+00  9.000E+00
     -24     2     1     2     0     0 -2.538827943E+01 -1.235834349E+01  1.293393348E+03  1.296259450E+03  8.139359167E+01  0.00000E+00  9.000E+00
      11     1     3     3     0     0 -7.507160329E+00 -4.672197726E+01  6.810221091E+02  6.826642027E+02  5.109989100E-04  0.00000E+00  9.000E+00
     -12     1     3     3     0     0 -1.788111910E+01  3.436363377E+01  6.123712385E+02  6.135952473E+02  7.948579422E-06  0.00000E+00  9.000E+00
       2     1     1     2   511     0  2.538827943E+01  1.235834349E+01  6.166015937E+01  6.781790796E+01  0.000000000E+00  0.00000E+00  9.000E+00
#rwgt            1           8   3582.1188362893276                1        6103           0
<rwgt>
<wgt id='ct10'>  0.501185669E+04 </wgt>
</rwgt>
</event>
<event>
      6  10011  5.01186E+03  3.79778E+00 -1.00000E+00  2.68781E-01
       1    -1     0     0   501     0  0.000000000E+00  0.000000000E+00  1.582226111E+02  1.582226111E+02  1.299260470E-06  0.00000E+00  9.000E+00
      21    -1     0     0   511   501  0.000000000E+00  0.000000000E+00 -1.168610014E+01  1.168610014E+01  5.383407844E-08  0.00000E+00  9.000E+00
     -24     2     1     2     0     0  2.754614909E+00  2.614429775E+00  1.486227970E+02  1.655756136E+02  7.288432519E+01  0.00000E+00  9.000E+00
      11     1     3     3     0     0  3.581095993E+01 -9.283104346E+00  6.354440523E+01  7.352885361E+01  5.109989100E-04  0.00000E+00  9.000E+00
     -12     1     3     3     0     0 -3.305634502E+01  1.189753412E+01  8.507839181E+01  9.204675995E+01  7.225613465E-07  0.00000E+00  9.000E+00
       2     1     1     2   511     0 -2.754614909E+00 -2.614429775E+00 -2.086286045E+00  4.333097715E+00  0.000000000E+00  0.00000E+00  9.000E+00
#rwgt            1           8   1685.6390014115104                1        6147           0
<rwgt>
<wgt id='ct10'>  0.501185669E+04 </wgt>
</rwgt>
</event>
<event>
      6  10011  5.01186E+03  3.73073E+00 -1.00000E+00  2.70697E-01
       1    -1     0     0   501     0  0.000000000E+00  0.000000000E+00  6.695604143E+02  6.695604143E+02  3.965720310E-06  0.00000E+00  9.000E+00
      -2    -1     0     0     0   511  0.000000000E+00  0.000000000E+00 -2.781645626E+00  2.781645626E+00  1.090554305E-08  0.00000E+00  9.000E+00
     -24     2     1     2     0     0  3.697682883E+00  4.955005699E-01  6.510820955E+02  6.562081228E+02  8.177583337E+01  0.00000E+00  9.000E+00
      11     1     3     3     0     0 -2.567405340E+01 -2.896965909E+01  3.777065530E+02  3.796849198E+02  5.109989100E-04  0.00000E+00  9.000E+00
     -12     1     3     3     0     0  2.937173628E+01  2.946515966E+01  2.733755426E+02  2.765232030E+02  4.369559531E-06  0.00000E+00  9.000E+00
      21     1     1     2   501   511 -3.697682883E+00 -4.955005699E-01  1.569667311E+01  1.613393709E+01  2.806511700E-07  0.00000E+00  9.000E+00
#rwgt            1           8   4578.2465537703329                1        6323           0
<rwgt>
<wgt id='ct10'>  0.501185669E+04 </wgt>
</rwgt>
</event>
<event>
      6  10011  5.01186E+03  1.21242E+01 -1.00000E+00  1.86506E-01
       1    -1     0     0   501     0  0.000000000E+00  0.000000000E+00  4.948697520E+02  4.948697520E+02  3.415459189E-06  0.00000E+00  9.000E+00
      21    -1     0     0   511   501  0.000000000E+00  0.000000000E+00 -6.312225110E+00  6.312225110E+00  1.898358230E-08  0.00000E+00  9.000E+00
     -24     2     1     2     0     0  9.145950082E+00 -7.959179442E+00  4.768212379E+02  4.843078128E+02  8.395574860E+01  0.00000E+00  9.000E+00
      11     1     3     3     0     0 -5.051158622E+00  1.327966540E+01  4.354687154E+02  4.357004313E+02  5.109989100E-04  0.00000E+00  9.000E+00
     -12     1     3     3     0     0  1.419710870E+01 -2.123884484E+01  4.135252250E+01  4.860738156E+01  1.147405124E-06  0.00000E+00  9.000E+00
       2     1     1     2   511     0 -9.145950082E+00  7.959179442E+00  1.173628896E+01  1.687416424E+01  0.000000000E+00  0.00000E+00  9.000E+00
#rwgt            1           8   6254.1492197051239                1        6471           0
<rwgt>
<wgt id='ct10'>  0.501185669E+04 </wgt>
</rwgt>
</event>
<event>
      6  10011  5.01186E+03  5.90782E+01 -1.00000E+00  1.35037E-01
       1    -1     0     0   501     0  0.000000000E+00  0.000000000E+00  1.538405158E+02  1.538405158E+02  1.259175236E-06  0.00000E+00  9.000E+00
      21    -1     0     0   511   501  0.000000000E+00  0.000000000E+00 -6.150304892E+01  6.150304892E+01  3.046425380E-07  0.00000E+00  9.000E+00
     -24     2     1     2     0     0  4.950178433E+01 -3.224607534E+01 -2.574375147E+00  1.035469020E+02  8.500057346E+01  0.00000E+00  9.000E+00
      11     1     3     3     0     0  3.782815893E+01 -6.129561860E+01 -4.590176146E+00  7.217473370E+01  5.109989100E-04  0.00000E+00  9.000E+00
     -12     1     3     3     0     0  1.167362540E+01  2.904954326E+01  2.015800999E+00  3.137216835E+01  9.144886951E-07  0.00000E+00  9.000E+00
       2     1     1     2   511     0 -4.950178433E+01  3.224607534E+01  9.491184204E+01  1.117966627E+02  0.000000000E+00  0.00000E+00  9.000E+00
#rwgt            1           8   1561.3832817316791                1        6564           0
<rwgt>
<wgt id='ct10'>  0.501185669E+04 </wgt>
</rwgt>
</event>
<event>
      6  10011  5.01186E+03  1.01677E+02 -1.00000E+00  1.23481E-01
       1    -1     0     0   501     0  0.000000000E+00  0.000000000E+00  1.725173688E+02  1.725173688E+02  1.109003912E-06  0.00000E+00  9.000E+00
      21    -1     0     0   511   501  0.000000000E+00  0.000000000E+00 -1.318350359E+02  1.318350359E+02  4.687135803E-07  0.00000E+00  9.000E+00
     -24     2     1     2     0     0  5.755177558E+01 -8.382091783E+01  1.190700947E+02  1.759670694E+02  8.030298208E+01  0.00000E+00  9.000E+00
      11     1     3     3     0     0 -2.767884356E+00 -3.758778001E+01  8.439949835E+01  9.243255764E+01  5.109989100E-04  0.00000E+00  9.000E+00
     -12     1     3     3     0     0  6.031965993E+01 -4.623313783E+01  3.467059635E+01  8.353451179E+01  1.133147897E-06  0.00000E+00  9.000E+00
       2     1     1     2   511     0 -5.755177558E+01  8.382091783E+01 -7.838776177E+01  1.283853354E+02  0.000000000E+00  0.00000E+00  9.000E+00
#rwgt            1           8   4107.8014140754949                1        6591           0
<rwgt>
<wgt id='ct10'>  0.501185669E+04 </wgt>
</rwgt>
</event>
<event>
      6  10011  5.01186E+03  5.69071E+00 -1.00000E+00  2.29021E-01
      21    -1     0     0   511   501  0.000000000E+00  0.000000000E+00  1.991790296E+01  1.991790296E+01  1.639624970E-07  0.00000E+00  9.000E+00
       1    -1     0     0   501     0  0.000000000E+00  0.000000000E+00 -9.969526594E+01  9.969526594E+01  2.405255052E-07  0.00000E+00  9.000E+00
     -24     2     1     2     0     0 -4.868949591E+00 -2.945754082E+00 -8.029653454E+01  1.138988294E+02  8.057931330E+01  0.00000E+00  9.000E+00
      11     1     3     3     0     0 -5.801226562E+00  3.798503890E+01 -4.952013999E+01  6.267983468E+01  5.109989100E-04  0.00000E+00  9.000E+00
     -12     1     3     3     0     0  9.322769716E-01 -4.093079298E+01 -3.077639455E+01  5.121899468E+01  1.119511212E-06  0.00000E+00  9.000E+00
       2     1     1     2   511     0  4.868949591E+00  2.945754082E+00  5.191715602E-01  5.714339536E+00  0.000000000E+00  0.00000E+00  9.000E+00
#rwgt            1           4   2794.5228963239983                1        6635           0
<rwgt>
<wgt id='ct10'>  0.501185669E+04 </wgt>
</rwgt>
</event>
<event>
      6  10011  5.01186E+03  5.11196E+00 -1.00000E+00  2.36761E-01
      21    -1     0     0   511   501  0.000000000E+00  0.000000000E+00  3.179702554E+00  3.179702554E+00  1.338198720E-08  0.00000E+00  9.000E+00
       1    -1     0     0   501     0  0.000000000E+00  0.000000000E+00 -6.827938467E+02  6.827938467E+02  3.652863397E-06  0.00000E+00  9.000E+00
     -24     2     1     2     0     0  4.962141837E+00 -1.228518746E+00 -6.720220335E+02  6.768208309E+02  8.029129135E+01  0.00000E+00  9.000E+00
      11     1     3     3     0     0 -8.986525640E+00 -1.184145093E+01 -6.411351812E+02  6.413074912E+02  5.109989100E-04  0.00000E+00  9.000E+00
     -12     1     3     3     0     0  1.394866748E+01  1.061293218E+01 -3.088685229E+01  3.551333973E+01  1.547666971E-07  0.00000E+00  9.000E+00
       4     1     1     2   511     0 -4.962141837E+00  1.228518746E+00 -7.592110645E+00  9.152718393E+00  0.000000000E+00  0.00000E+00  9.000E+00
#rwgt            1           1   435.21740059604650                1        6804           0
<rwgt>
<wgt id='ct10'>  0.501185669E+04 </wgt>
</rwgt>
</event>
<event>
      6  10011  5.01186E+03  8.84219E+00 -1.00000E+00  2.02082E-01
       1    -1     0     0   511     0  0.000000000E+00  0.000000000E+00  8.571066803E+01  8.571066803E+01  5.383153872E-07  0.00000E+00  9.000E+00
      -2    -1     0     0     0   501  0.000000000E+00  0.000000000E+00 -1.575366759E+01  1.575366759E+01  7.459609739E-08  0.00000E+00  9.000E+00
     -24     2     1     2     0     0 -3.745894885E+00 -8.009533406E+00  4.581608030E+01  7.575503033E+01  5.967853091E+01  0.00000E+00  9.000E+00
      11     1     3     3     0     0  2.339745732E+01 -8.962901967E+00  4.117812288E+01  4.820178861E+01  5.109989100E-04  0.00000E+00  9.000E+00
     -12     1     3     3     0     0 -2.714335220E+01  9.533685604E-01  4.637957419E+00  2.755324172E+01  4.557383528E-07  0.00000E+00  9.000E+00
      21     1     1     2   511   501  3.745894885E+00  8.009533406E+00  2.414092014E+01  2.570930530E+01  3.313660375E-07  0.00000E+00  9.000E+00
#rwgt            1           8   2594.3052356559092                1        7031           0
<rwgt>
<wgt id='ct10'>  0.501185669E+04 </wgt>
</rwgt>
</event>
<event>
      6  10011  5.01186E+03  5.39376E+00 -1.00000E+00  2.32821E-01
      21    -1     0     0   501   511  0.000000000E+00  0.000000000E+00  5.176031017E+01  5.176031017E+01  4.337144037E-07  0.00000E+00  9.000E+00
      -2    -1     0     0     0   501  0.000000000E+00  0.000000000E+00 -1.936436781E+01  1.936436781E+01  1.325655329E-07  0.00000E+00  9.000E+00
     -24     2     1     2     0     0 -4.240614641E+00 -3.333146051E+00  3.165223084E+01  6.567988395E+01  5.729651616E+01  0.00000E+00  9.000E+00
      11     1     3     3     0     0  1.057888716E+00  2.685659668E+01  1.567878728E+01  3.111623827E+01  5.109989100E-04  0.00000E+00  9.000E+00
     -12     1     3     3     0     0 -5.298503357E+00 -3.018974273E+01  1.597344356E+01  3.456364568E+01  5.112305157E-07  0.00000E+00  9.000E+00
      -1     1     1     2     0   511  4.240614641E+00  3.333146051E+00  7.437115277E-01  5.444794024E+00  0.000000000E+00  0.00000E+00  9.000E+00
#rwgt            1           8   1411.8932877465693                1        7202           0
<rwgt>
<wgt id='ct10'>  0.501185669E+04 </wgt>
</rwgt>
</event>
<event>
      6  10011  5.01186E+03  1.11058E+01 -1.00000E+00  1.90580E-01
       1    -1     0     0   511     0  0.000000000E+00  0.000000000E+00  2.173319978E+01  2.173319978E+01  9.272753301E-08  0.00000E+00  9.000E+00
      -2    -1     0     0     0   501  0.000000000E+00  0.000000000E+00 -1.015726722E+02  1.015726722E+02  3.303096290E-07  0.00000E+00  9.000E+00
     -24     2     1     2     0     0  8.190371530E+00  7.500428184E+00 -7.979695864E+01  1.121999989E+02  7.808934973E+01  0.00000E+00  9.000E+00
      11     1     3     3     0     0  1.451942993E+01  1.399659242E+00  1.266703339E+01  1.931907417E+01  5.109989100E-04  0.00000E+00  9.000E+00
     -12     1     3     3     0     0 -6.329058402E+00  6.100768943E+00 -9.246399203E+01  9.288092476E+01  1.316398985E-06  0.00000E+00  9.000E+00
      21     1     1     2   511   501 -8.190371530E+00 -7.500428184E+00 -4.251377914E-02  1.110587305E+01  5.798833816E-08  0.00000E+00  9.000E+00
#rwgt            1           8   2791.4090019270607                1        7356           0
<rwgt>
<wgt id='ct10'>  0.501185669E+04 </wgt>
</rwgt>
</event>
<event>
      6  10011  5.01186E+03  2.50846E+00 -1.00000E+00  3.22466E-01
      -4    -1     0     0     0   511  0.000000000E+00  0.000000000E+00  7.947432510E+00  7.947432510E+00  3.181399419E-08  0.00000E+00  9.000E+00
       1    -1     0     0   501     0  0.000000000E+00  0.000000000E+00 -3.544027166E+02  3.544027166E+02  2.103848110E-06  0.00000E+00  9.000E+00
     -24     2     1     2     0     0  1.726085628E+00 -1.820164998E+00 -3.492939038E+02  3.585619920E+02  8.095788100E+01  0.00000E+00  9.000E+00
      11     1     3     3     0     0 -1.713583632E+01  2.642326174E+01 -2.758920015E+02  2.776836728E+02  5.109989100E-04  0.00000E+00  9.000E+00
     -12     1     3     3     0     0  1.886192195E+01 -2.824342674E+01 -7.340190227E+01  8.087831917E+01  1.731723914E-07  0.00000E+00  9.000E+00
      21     1     1     2   501   511 -1.726085628E+00  1.820164998E+00  2.838619732E+00  3.788157098E+00  1.222247586E-07  0.00000E+00  9.000E+00
#rwgt            1           1   223.99647945722666                1        7459           0
<rwgt>
<wgt id='ct10'>  0.501185669E+04 </wgt>
</rwgt>
</event>
<event>
      6  10011  5.01186E+03  2.42559E+00 -1.00000E+00  3.27841E-01
       1    -1     0     0   511     0  0.000000000E+00  0.000000000E+00  9.949456568E+02  9.949456568E+02  4.020390192E-06  0.00000E+00  9.000E+00
      -2    -1     0     0     0   501  0.000000000E+00  0.000000000E+00 -2.969342330E+00  2.969342330E+00  2.563209641E-08  0.00000E+00  9.000E+00
     -24     2     1     2     0     0 -6.619949727E-01 -2.333508921E+00  5.513083258E+02  5.572403349E+02  8.105576589E+01  0.00000E+00  9.000E+00
      11     1     3     3     0     0  2.722421033E+01 -1.608526677E+01  4.536741727E+02  4.547748326E+02  5.109989100E-04  0.00000E+00  9.000E+00
     -12     1     3     3     0     0 -2.788620531E+01  1.375175785E+01  9.763415318E+01  1.024655023E+02  2.254001073E-06  0.00000E+00  9.000E+00
      21     1     1     2   511   501  6.619949727E-01  2.333508921E+00  4.406679886E+02  4.406746642E+02  5.854566984E-06  0.00000E+00  9.000E+00
#rwgt            1           8   6159.9916027184645                1        7962           0
<rwgt>
<wgt id='ct10'>  0.501185669E+04 </wgt>
</rwgt>
</event>
<event>
      6  10011  5.01186E+03  5.21812E+00 -1.00000E+00  2.35235E-01
      21    -1     0     0   501   511  0.000000000E+00  0.000000000E+00  4.791942164E+02  4.791942164E+02  3.674359659E-06  0.00000E+00  9.000E+00
      -4    -1     0     0     0   501  0.000000000E+00  0.000000000E+00 -5.595718322E+00  5.595718322E+00  6.247535549E-09  0.00000E+00  9.000E+00
     -24     2     1     2     0     0 -4.545088635E+00  2.563391370E+00  2.843340003E+02  2.954535174E+02  8.012320768E+01  0.00000E+00  9.000E+00
      11     1     3     3     0     0  2.864520809E+01 -2.284508712E+01  1.017431576E+02  1.081393364E+02  5.109989100E-04  0.00000E+00  9.000E+00
     -12     1     3     3     0     0 -3.319029673E+01  2.540847849E+01  1.825908427E+02  1.873141810E+02  1.683897542E-06  0.00000E+00  9.000E+00
      -3     1     1     2     0   511  4.545088635E+00 -2.563391370E+00  1.892644978E+02  1.893364174E+02  0.000000000E+00  0.00000E+00  9.000E+00
#rwgt            1           9   749.78974704044970                1        8186           0
<rwgt>
<wgt id='ct10'>  0.501185669E+04 </wgt>
</rwgt>
</event>
<event>
      6  10011  5.01186E+03  4.22924E+00 -1.00000E+00  2.57791E-01
      -4    -1     0     0     0   511  0.000000000E+00  0.000000000E+00  1.378999522E+03  1.378999522E+03  2.824632937E-06  0.00000E+00  9.000E+00
       3    -1     0     0   501     0  0.000000000E+00  0.000000000E+00 -1.773586550E+00  1.773586550E+00  1.200535398E-08  0.00000E+00  9.000E+00
     -24     2     1     2     0     0  3.464538170E+00 -2.425580965E+00  8.960106082E+02  8.995391970E+02  7.948503270E+01  0.00000E+00  9.000E+00
      11     1     3     3     0     0  9.803379868E+00  2.875474312E+01  1.610603830E+02  1.639005444E+02  5.109989100E-04  0.00000E+00  9.000E+00
     -12     1     3     3     0     0 -6.338841698E+00 -3.118032408E+01  7.349502253E+02  7.356386526E+02  1.084073935E-05  0.00000E+00  9.000E+00
      21     1     1     2   501   511 -3.464538170E+00  2.425580965E+00  4.812153277E+02  4.812339120E+02  5.523409255E-06  0.00000E+00  9.000E+00
#rwgt            1           2   195.98321910093370                1        8331           0
<rwgt>
<wgt id='ct10'>  0.501185669E+04 </wgt>
</rwgt>
</event>
<event>
      6  10011  5.01186E+03  4.25996E+00 -1.00000E+00  2.57086E-01
      21    -1     0     0   511   501  0.000000000E+00  0.000000000E+00  8.551488019E+02  8.551488019E+02  7.455705018E-06  0.00000E+00  9.000E+00
       3    -1     0     0   501     0  0.000000000E+00  0.000000000E+00 -2.669535655E+00  2.669535655E+00  1.495527329E-08  0.00000E+00  9.000E+00
     -24     2     1     2     0     0  3.929644084E+00  1.644738185E+00  6.167523082E+02  6.220528905E+02  8.092120654E+01  0.00000E+00  9.000E+00
      11     1     3     3     0     0  4.194468208E+01  6.318015761E+00  3.513091760E+02  3.538607223E+02  5.109989100E-04  0.00000E+00  9.000E+00
     -12     1     3     3     0     0 -3.801503800E+01 -4.673277575E+00  2.654431322E+02  2.681921682E+02  7.317764648E-06  0.00000E+00  9.000E+00
       4     1     1     2   511     0 -3.929644084E+00 -1.644738185E+00  2.357269581E+02  2.357654470E+02  0.000000000E+00  0.00000E+00  9.000E+00
#rwgt            1           2   180.97866231572829                1        8634           0
<rwgt>
<wgt id='ct10'>  0.501185669E+04 </wgt>
</rwgt>
</event>
<event>
      6  10011  5.01186E+03  1.11138E+01 -1.00000E+00  1.90545E-01
      -2    -1     0     0     0   501  0.000000000E+00  0.000000000E+00  1.265166322E+01  1.265166322E+01  9.294466448E-08  0.00000E+00  9.000E+00
       1    -1     0     0   511     0  0.000000000E+00  0.000000000E+00 -1.810000911E+02  1.810000911E+02  1.293305261E-06  0.00000E+00  9.000E+00
     -24     2     1     2     0     0 -1.095299070E+01 -1.883862683E+00 -1.235713872E+02  1.475160814E+02  7.979717787E+01  0.00000E+00  9.000E+00
      11     1     3     3     0     0 -3.948154558E+01 -1.730222773E+01 -9.489613973E+01  1.042278123E+02  5.109989100E-04  0.00000E+00  9.000E+00
     -12     1     3     3     0     0  2.852855487E+01  1.541836505E+01 -2.867524752E+01  4.328826913E+01  9.944224009E-07  0.00000E+00  9.000E+00
      21     1     1     2   511   501  1.095299070E+01  1.883862683E+00 -4.477704060E+01  4.613567284E+01  2.716034239E-07  0.00000E+00  9.000E+00
#rwgt            1           4   3749.6493334929351                1        8869           0
<rwgt>
<wgt id='ct10'>  0.501185669E+04 </wgt>
</rwgt>
</event>
<event>
      6  10011  5.01186E+03  1.30862E+01 -1.00000E+00  1.83105E-01
      21    -1     0     0   511   501  0.000000000E+00  0.000000000E+00  4.123012618E+00  4.123012618E+00  1.458916520E-08  0.00000E+00  9.000E+00
       1    -1     0     0   501     0  0.000000000E+00  0.000000000E+00 -1.334636438E+03  1.334636438E+03  6.181685780E-06  0.00000E+00  9.000E+00
     -24     2     1     2     0     0 -1.208158463E+01  5.028428990E+00 -1.318612687E+03  1.321071111E+03  7.948717976E+01  0.00000E+00  9.000E+00
      11     1     3     3     0     0 -1.885301841E+01  3.571455741E+01 -1.022175047E+03  1.022972528E+03  5.109989100E-04  0.00000E+00  9.000E+00
     -12     1     3     3     0     0  6.771433773E+00 -3.068612842E+01 -2.964376396E+02  2.980985826E+02  7.307300214E-06  0.00000E+00  9.000E+00
       2     1     1     2   511     0  1.208158463E+01 -5.028428990E+00 -1.190073792E+01  1.768833933E+01  0.000000000E+00  0.00000E+00  9.000E+00
#rwgt            1           4   23806.780328208108                1        8988           0
<rwgt>
<wgt id='ct10'>  0.501185669E+04 </wgt>
</rwgt>
</event>
<event>
      6  10011  5.01186E+03  5.26716E+00 -1.00000E+00  2.34548E-01
       1    -1     0     0   511     0  0.000000000E+00  0.000000000E+00  1.739298351E+02  1.739298351E+02  6.918499676E-07  0.00000E+00  9.000E+00
      -2    -1     0     0     0   501  0.000000000E+00  0.000000000E+00 -1.355262904E+01  1.355262904E+01  1.187612966E-07  0.00000E+00  9.000E+00
     -24     2     1     2     0     0  3.243496222E+00 -4.150020240E+00  1.164480334E+02  1.432386494E+02  8.324315741E+01  0.00000E+00  9.000E+00
      11     1     3     3     0     0  1.430887634E+01  8.474667838E-01  1.266019653E+02  1.274108307E+02  5.109989100E-04  0.00000E+00  9.000E+00
     -12     1     3     3     0     0 -1.106538012E+01 -4.997487024E+00 -1.015393189E+01  1.582781875E+01  8.018602065E-07  0.00000E+00  9.000E+00
      21     1     1     2   511   501 -3.243496222E+00  4.150020240E+00  4.392917262E+01  4.424381474E+01  2.012544267E-07  0.00000E+00  9.000E+00
#rwgt            1           8   4499.6716209393453                1        9107           0
<rwgt>
<wgt id='ct10'>  0.501185669E+04 </wgt>
</rwgt>
</event>
<event>
      6  10011  5.01186E+03  1.86992E+01 -1.00000E+00  1.68773E-01
      21    -1     0     0   511   501  0.000000000E+00  0.000000000E+00  1.188356909E+02  1.188356909E+02  7.859363371E-07  0.00000E+00  9.000E+00
       3    -1     0     0   501     0  0.000000000E+00  0.000000000E+00 -2.639482325E+01  2.639482325E+01  2.093065940E-07  0.00000E+00  9.000E+00
     -24     2     1     2     0     0 -1.428189835E+01  1.207014159E+01  2.688491753E+01  7.705982004E+01  6.975497212E+01  0.00000E+00  9.000E+00
      11     1     3     3     0     0  2.432716588E+01 -9.479311397E+00  1.675837775E+00  2.616250708E+01  5.109989100E-04  0.00000E+00  9.000E+00
     -12     1     3     3     0     0 -3.860906423E+01  2.154945299E+01  2.520907975E+01  5.089731296E+01  1.016853565E-06  0.00000E+00  9.000E+00
       4     1     1     2   511     0  1.428189835E+01 -1.207014159E+01  6.555595013E+01  6.817069412E+01  0.000000000E+00  0.00000E+00  9.000E+00
#rwgt            1           2   930.57822417578848                1        9334           0
<rwgt>
<wgt id='ct10'>  0.501185669E+04 </wgt>
</rwgt>
</event>
<event>
      6  10011  5.01186E+03  1.69287E+01 -1.00000E+00  1.72529E-01
       1    -1     0     0   501     0  0.000000000E+00  0.000000000E+00  1.400763846E+03  1.400763846E+03  6.095354668E-06  0.00000E+00  9.000E+00
      21    -1     0     0   511   501  0.000000000E+00  0.000000000E+00 -2.126429311E+00  2.126429311E+00  1.892190895E-08  0.00000E+00  9.000E+00
     -24     2     1     2     0     0  3.144308513E-02 -1.692869609E+01  1.324134403E+03  1.326488176E+03  7.715168118E+01  0.00000E+00  9.000E+00
      11     1     3     3     0     0 -2.982136923E+01  1.011181927E+01  8.704177064E+02  8.709871105E+02  5.109989100E-04  0.00000E+00  9.000E+00
     -12     1     3     3     0     0  2.985281231E+01 -2.704051535E+01  4.537166970E+02  4.555010658E+02  9.151665157E-06  0.00000E+00  9.000E+00
       2     1     1     2   511     0 -3.144308513E-02  1.692869609E+01  7.450301299E+01  7.640209869E+01  0.000000000E+00  0.00000E+00  9.000E+00
#rwgt            1           8   31032.687511516600                1        9492           0
<rwgt>
<wgt id='ct10'>  0.501185669E+04 </wgt>
</rwgt>
</event>
<event>
      6  10011  5.01186E+03  1.86385E+01 -1.00000E+00  1.68893E-01
      -2    -1     0     0     0   501  0.000000000E+00  0.000000000E+00  3.554592926E+02  3.554592926E+02  2.570081220E-06  0.00000E+00  9.000E+00
       1    -1     0     0   511     0  0.000000000E+00  0.000000000E+00 -9.154597834E+00  9.154597834E+00  7.996725800E-08  0.00000E+00  9.000E+00
     -24     2     1     2     0     0 -1.567101392E+01  1.009020401E+01  3.287290579E+02  3.389956176E+02  8.067119884E+01  0.00000E+00  9.000E+00
      11     1     3     3     0     0 -2.697394907E+01 -2.406492540E+01  8.142539619E+01  8.908877431E+01  5.109989100E-04  0.00000E+00  9.000E+00
     -12     1     3     3     0     0  1.130293515E+01  3.415512940E+01  2.473036617E+02  2.499068433E+02  4.367153589E-06  0.00000E+00  9.000E+00
      21     1     1     2   511   501  1.567101392E+01 -1.009020401E+01  1.757563688E+01  2.561827290E+01  1.961142856E-07  0.00000E+00  9.000E+00
#rwgt            1           4   1632.6976447670797                1        9573           0
<rwgt>
<wgt id='ct10'>  0.501185669E+04 </wgt>
</rwgt>
</event>
<event>
      6  10011  5.01186E+03  2.99037E+01 -1.00000E+00  1.53102E-01
      -2    -1     0     0     0   511  0.000000000E+00  0.000000000E+00  5.690244565E+02  5.690244565E+02  1.579147777E-06  0.00000E+00  9.000E+00
       1    -1     0     0   501     0  0.000000000E+00  0.000000000E+00 -1.334665905E+01  1.334665905E+01  7.777019170E-08  0.00000E+00  9.000E+00
     -24     2     1     2     0     0  2.510678289E+01  1.624441476E+01  1.363119007E+02  1.619403995E+02  8.215550613E+01  0.00000E+00  9.000E+00
      11     1     3     3     0     0  5.024942894E+01  9.194145342E+00  4.891647778E+01  7.072735833E+01  5.109989100E-04  0.00000E+00  9.000E+00
     -12     1     3     3     0     0 -2.514264605E+01  7.050269416E+00  8.739542288E+01  9.121304122E+01  4.493886775E-07  0.00000E+00  9.000E+00
      21     1     1     2   501   511 -2.510678289E+01 -1.624441476E+01  4.193658968E+02  4.204307160E+02  4.909647878E-06  0.00000E+00  9.000E+00
#rwgt            1           4   2285.0191861508879                1        9692           0
<rwgt>
<wgt id='ct10'>  0.501185669E+04 </wgt>
</rwgt>
</event>
<event>
      6  10011  5.01186E+03  1.75800E+01 -1.00000E+00  1.71083E-01
      21    -1     0     0   511   501  0.000000000E+00  0.000000000E+00  2.035988431E+02  2.035988431E+02  1.013790547E-06  0.00000E+00  9.000E+00
       1    -1     0     0   501     0  0.000000000E+00  0.000000000E+00 -1.274339060E+01  1.274339060E+01  7.824772307E-08  0.00000E+00  9.000E+00
     -24     2     1     2     0     0  1.637985207E+01 -6.384197224E+00  1.703707678E+02  1.893481633E+02  8.073085473E+01  0.00000E+00  9.000E+00
      11     1     3     3     0     0 -1.964961994E+01  3.473703918E+00  6.073508366E+00  2.085813239E+01  5.109989100E-04  0.00000E+00  9.000E+00
     -12     1     3     3     0     0  3.602947201E+01 -9.857901143E+00  1.642972594E+02  1.684900310E+02  2.375847583E-06  0.00000E+00  9.000E+00
       2     1     1     2   511     0 -1.637985207E+01  6.384197224E+00  2.048468469E+01  2.699407037E+01  0.000000000E+00  0.00000E+00  9.000E+00
#rwgt            1           4   2271.9686150214698                1        9739           0
<rwgt>
<wgt id='ct10'>  0.501185669E+04 </wgt>
</rwgt>
</event>
<event>
      6  10011  5.01186E+03  3.91186E+00 -1.00000E+00  2.65661E-01
       3    -1     0     0   501     0  0.000000000E+00  0.000000000E+00  5.409112121E+01  5.409112121E+01  4.109954704E-07  0.00000E+00  9.000E+00
      21    -1     0     0   511   501  0.000000000E+00  0.000000000E+00 -1.075464095E+02  1.075464095E+02  8.350766924E-07  0.00000E+00  9.000E+00
     -24     2     1     2     0     0 -2.461788542E+00 -3.040110737E+00  3.444765966E+01  7.364758280E+01  6.497709227E+01  0.00000E+00  9.000E+00
      11     1     3     3     0     0  1.005423213E+01  2.769048143E+01  2.627486161E+01  3.947427895E+01  5.109989100E-04  0.00000E+00  9.000E+00
     -12     1     3     3     0     0 -1.251602067E+01 -3.073059216E+01  8.172798048E+00  3.417330385E+01  6.281888875E-07  0.00000E+00  9.000E+00
       4     1     1     2   511     0  2.461788542E+00  3.040110737E+00 -8.790294796E+01  8.798994793E+01  0.000000000E+00  0.00000E+00  9.000E+00
#rwgt            1           9   1258.1022535680618                1        9889           0
<rwgt>
<wgt id='ct10'>  0.501185669E+04 </wgt>
</rwgt>
</event>
<event>
      6  10011  5.01186E+03  1.09584E+01 -1.00000E+00  1.91216E-01
      -2    -1     0     0     0   501  0.000000000E+00  0.000000000E+00  1.365909386E+03  1.365909386E+03  8.723579272E-06  0.00000E+00  9.000E+00
       1    -1     0     0   511     0  0.000000000E+00  0.000000000E+00 -1.669112741E+00  1.669112741E+00  5.638595473E-09  0.00000E+00  9.000E+00
     -24     2     1     2     0     0 -1.095767594E+01  1.251766359E-01  1.301082065E+03  1.303476661E+03  7.820984334E+01  0.00000E+00  9.000E+00
      11     1     3     3     0     0 -1.482281364E+01 -3.792967627E+01  6.703370171E+02  6.715728498E+02  5.109989100E-04  0.00000E+00  9.000E+00
     -12     1     3     3     0     0  3.865137703E+00  3.805485290E+01  6.307450476E+02  6.319038109E+02  3.331295369E-06  0.00000E+00  9.000E+00
      21     1     1     2   511   501  1.095767594E+01 -1.251766359E-01  6.315820882E+01  6.410183829E+01  6.021869101E-07  0.00000E+00  9.000E+00
#rwgt            1           4   236.02404804621764                1       10094           0
<rwgt>
<wgt id='ct10'>  0.501185669E+04 </wgt>
</rwgt>
</event>
<event>
      6  10011  5.01186E+03  4.75907E+00 -1.00000E+00  2.46776E-01
       1    -1     0     0   501     0  0.000000000E+00  0.000000000E+00  4.106868248E+01  4.106868248E+01  1.019459836E-07  0.00000E+00  9.000E+00
      21    -1     0     0   511   501  0.000000000E+00  0.000000000E+00 -4.478547654E+01  4.478547654E+01  3.023802896E-07  0.00000E+00  9.000E+00
     -24     2     1     2     0     0 -5.288364735E-01 -4.729598296E+00 -5.863525976E+00  8.063331369E+01  8.027889867E+01  0.00000E+00  9.000E+00
      11     1     3     3     0     0  3.701181205E+01 -8.422796089E+00 -1.657637699E+01  4.141972959E+01  5.109989100E-04  0.00000E+00  9.000E+00
     -12     1     3     3     0     0 -3.754064852E+01  3.693197793E+00  1.071285102E+01  3.921358410E+01  9.133577192E-07  0.00000E+00  9.000E+00
       2     1     1     2   511     0  5.288364735E-01  4.729598296E+00  2.146731919E+00  5.220845333E+00  0.000000000E+00  0.00000E+00  9.000E+00
#rwgt            1           8   631.22606941843799                1       10230           0
<rwgt>
<wgt id='ct10'>  0.501185669E+04 </wgt>
</rwgt>
</event>
<event>
      6  10011  5.01186E+03  4.63909E+00 -1.00000E+00  2.49074E-01
      21    -1     0     0   511   501  0.000000000E+00  0.000000000E+00  2.351182509E+01  2.351182509E+01  2.133587564E-07  0.00000E+00  9.000E+00
       1    -1     0     0   501     0  0.000000000E+00  0.000000000E+00 -1.257091972E+02  1.257091972E+02  5.782382261E-07  0.00000E+00  9.000E+00
     -24     2     1     2     0     0 -4.291158545E+00 -1.762698080E+00 -1.121501987E+02  1.382401342E+02  8.069167546E+01  0.00000E+00  9.000E+00
      11     1     3     3     0     0  1.128718980E+01 -3.178296210E+01 -9.397531051E+01  9.984446063E+01  5.109989100E-04  0.00000E+00  9.000E+00
     -12     1     3     3     0     0 -1.557834835E+01  3.002026402E+01 -1.817488822E+01  3.839567359E+01  1.161949373E-06  0.00000E+00  9.000E+00
       4     1     1     2   511     0  4.291158545E+00  1.762698080E+00  9.952826592E+00  1.098088809E+01  0.000000000E+00  0.00000E+00  9.000E+00
#rwgt            1           1   159.24016340593164                1       10440           0
<rwgt>
<wgt id='ct10'>  0.501185669E+04 </wgt>
</rwgt>
</event>
<event>
      6  10011  5.01186E+03  2.82786E+01 -1.00000E+00  1.54808E-01
       1    -1     0     0   501     0  0.000000000E+00  0.000000000E+00  2.291923292E+02  2.291923292E+02  1.556588462E-06  0.00000E+00  9.000E+00
      21    -1     0     0   511   501  0.000000000E+00  0.000000000E+00 -3.247153295E+01  3.247153295E+01  2.620757934E-07  0.00000E+00  9.000E+00
     -24     2     1     2     0     0  2.431578256E+01  1.443690555E+01  2.117653987E+02  2.296322904E+02  8.418267731E+01  0.00000E+00  9.000E+00
      11     1     3     3     0     0  2.556615524E+01  2.818898966E+01  2.124257870E+02  2.158076977E+02  5.109989100E-04  0.00000E+00  9.000E+00
     -12     1     3     3     0     0 -1.250372682E+00 -1.375208411E+01 -6.603882340E-01  1.382459264E+01  3.912320652E-07  0.00000E+00  9.000E+00
       2     1     1     2   511     0 -2.431578256E+01 -1.443690555E+01 -1.504460252E+01  3.203157174E+01  0.000000000E+00  0.00000E+00  9.000E+00
#rwgt            1           8   5003.0189925836585                1       10718           0
<rwgt>
<wgt id='ct10'>  0.501185669E+04 </wgt>
</rwgt>
</event>
<event>
      6  10011  5.01186E+03  1.92907E+00 -1.00000E+00  3.70326E-01
      -2    -1     0     0     0   501  0.000000000E+00  0.000000000E+00  2.763017100E+00  2.763017100E+00  4.457358346E-09  0.00000E+00  9.000E+00
       3    -1     0     0   511     0  0.000000000E+00  0.000000000E+00 -8.128617285E+02  8.128617285E+02  7.563166971E-06  0.00000E+00  9.000E+00
     -24     2     1     2     0     0  1.732290325E-01 -1.921276806E+00 -5.571506376E+02  5.626693160E+02  7.858883448E+01  0.00000E+00  9.000E+00
      11     1     3     3     0     0  2.164620298E+01 -1.301456871E+00 -5.140950402E+02  5.145521959E+02  5.109989100E-04  0.00000E+00  9.000E+00
     -12     1     3     3     0     0 -2.147297394E+01 -6.198199344E-01 -4.305559741E+01  4.811712018E+01  1.749006552E-06  0.00000E+00  9.000E+00
      21     1     1     2   511   501 -1.732290325E-01  1.921276806E+00 -2.529480738E+02  2.529554296E+02  3.879172237E-06  0.00000E+00  9.000E+00
#rwgt            1           5   36.391859996197923                1       10778           0
<rwgt>
<wgt id='ct10'>  0.501185669E+04 </wgt>
</rwgt>
</event>
<event>
      6  10011  5.01186E+03  5.37735E+01 -1.00000E+00  1.37268E-01
      21    -1     0     0   501   511  0.000000000E+00  0.000000000E+00  1.443698746E+02  1.443698746E+02  1.285055704E-06  0.00000E+00  9.000E+00
      -2    -1     0     0     0   501  0.000000000E+00  0.000000000E+00 -3.886095631E+01  3.886095631E+01  3.176083679E-07  0.00000E+00  9.000E+00
     -24     2     1     2     0     0  5.263715107E+01  1.099655811E+01  3.217575788E+01  9.229488434E+01  6.776040376E+01  0.00000E+00  9.000E+00
      11     1     3     3     0     0  1.736220244E+01 -1.830730056E+01  3.847014503E+01  4.600603641E+01  5.109989100E-04  0.00000E+00  9.000E+00
     -12     1     3     3     0     0  3.527494864E+01  2.930385866E+01 -6.294387150E+00  4.628884794E+01  3.663483298E-07  0.00000E+00  9.000E+00
      -1     1     1     2     0   511 -5.263715107E+01 -1.099655811E+01  7.333316040E+01  9.093594657E+01  0.000000000E+00  0.00000E+00  9.000E+00
#rwgt            1           8   2708.1171531917207                1       10984           0
<rwgt>
<wgt id='ct10'>  0.501185669E+04 </wgt>
</rwgt>
</event>
<event>
      6  10011  5.01186E+03  1.61614E+00 -1.00000E+00  4.12334E-01
      -2    -1     0     0     0   511  0.000000000E+00  0.000000000E+00  1.146206704E+03  1.146206704E+03  9.673270338E-06  0.00000E+00  9.000E+00
       1    -1     0     0   501     0  0.000000000E+00  0.000000000E+00 -1.488323291E+00  1.488323291E+00  1.236227997E-08  0.00000E+00  9.000E+00
     -24     2     1     2     0     0  3.402007582E-01 -1.579931282E+00  1.089751639E+03  1.092704532E+03  8.026173941E+01  0.00000E+00  9.000E+00
      11     1     3     3     0     0 -1.953842233E+01  3.360610982E+01  4.489526061E+02  4.506324036E+02  5.109989100E-04  0.00000E+00  9.000E+00
     -12     1     3     3     0     0  1.987862309E+01 -3.518604110E+01  6.407990332E+02  6.420721284E+02  1.174129411E-05  0.00000E+00  9.000E+00
      21     1     1     2   501   511 -3.402007582E-01  1.579931282E+00  5.496674178E+01  5.499049574E+01  5.250030704E-07  0.00000E+00  9.000E+00
#rwgt            1           4   169.11252225720213                1       11017           0
<rwgt>
<wgt id='ct10'>  0.501185669E+04 </wgt>
</rwgt>
</event>
<event>
      6  10011  5.01186E+03  5.63544E+00 -1.00000E+00  2.29703E-01
       1    -1     0     0   511     0  0.000000000E+00  0.000000000E+00  1.960406806E+03  1.960406806E+03  8.183080130E-06  0.00000E+00  9.000E+00
      -2    -1     0     0     0   501  0.000000000E+00  0.000000000E+00 -1.113906397E+00  1.113906397E+00  6.001323505E-09  0.00000E+00  9.000E+00
     -24     2     1     2     0     0  4.920335504E+00  2.747458760E+00  1.228387160E+03  1.230593248E+03  7.343683404E+01  0.00000E+00  9.000E+00
      11     1     3     3     0     0  2.884225042E+00  6.644906859E+00  1.225054151E+03  1.225075568E+03  5.109989100E-04  0.00000E+00  9.000E+00
     -12     1     3     3     0     0  2.036110462E+00 -3.897448099E+00  3.333009336E+00  5.517680557E+00  1.149681760E-06  0.00000E+00  9.000E+00
      21     1     1     2   511   501 -4.920335504E+00 -2.747458760E+00  7.309057396E+02  7.309274645E+02  1.024947623E-05  0.00000E+00  9.000E+00
#rwgt            1           8   7747.4605646224527                1       11477           0
<rwgt>
<wgt id='ct10'>  0.501185669E+04 </wgt>
</rwgt>
</event>
<event>
      6  10011  5.01186E+03  1.96551E+00 -1.00000E+00  3.66414E-01
      -4    -1     0     0     0   511  0.000000000E+00  0.000000000E+00  1.132051105E+02  1.132051105E+02  2.024609871E-07  0.00000E+00  9.000E+00
       3    -1     0     0   501     0  0.000000000E+00  0.000000000E+00 -1.707366578E+01  1.707366578E+01  8.163770536E-08  0.00000E+00  9.000E+00
     -24     2     1     2     0     0  7.226984244E-01 -1.827823608E+00  8.383445017E+01  1.178256920E+02  8.276965288E+01  0.00000E+00  9.000E+00
      11     1     3     3     0     0  1.653880061E+01  2.028556903E+01 -3.455059974E+00  2.640025902E+01  5.109989100E-04  0.00000E+00  9.000E+00
     -12     1     3     3     0     0 -1.581610219E+01 -2.211339264E+01  8.728951015E+01  9.142543303E+01  2.378476572E-06  0.00000E+00  9.000E+00
      21     1     1     2   501   511 -7.226984244E-01  1.827823608E+00  1.229699459E+01  1.245308428E+01  1.618697302E-07  0.00000E+00  9.000E+00
#rwgt            1           2   1294.7509388850513                1       11606           0
<rwgt>
<wgt id='ct10'>  0.501185669E+04 </wgt>
</rwgt>
</event>
<event>
      6  10011  5.01186E+03  5.48397E+00 -1.00000E+00  2.31631E-01
       1    -1     0     0   501     0  0.000000000E+00  0.000000000E+00  1.184418130E+03  1.184418130E+03  9.429287638E-06  0.00000E+00  9.000E+00
      21    -1     0     0   511   501  0.000000000E+00  0.000000000E+00 -2.333176399E+00  2.333176399E+00  1.637857731E-08  0.00000E+00  9.000E+00
     -24     2     1     2     0     0  4.629486494E+00 -2.939689117E+00  1.175506865E+03  1.178187127E+03  7.923662928E+01  0.00000E+00  9.000E+00
      11     1     3     3     0     0 -8.702237526E+00 -1.513068496E+01  1.112620173E+03  1.112757079E+03  5.109989100E-04  0.00000E+00  9.000E+00
     -12     1     3     3     0     0  1.333172402E+01  1.219099584E+01  6.288669134E+01  6.543004809E+01  3.159663262E-06  0.00000E+00  9.000E+00
       2     1     1     2   511     0 -4.629486494E+00  2.939689117E+00  6.578089554E+00  8.564180024E+00  0.000000000E+00  0.00000E+00  9.000E+00
#rwgt            1           8   7284.2572967510787                1       11934           0
<rwgt>
<wgt id='ct10'>  0.501185669E+04 </wgt>
</rwgt>
</event>
<event>
      6  10011  5.01186E+03  7.90956E+00 -1.00000E+00  2.08252E-01
      -2    -1     0     0     0   511  0.000000000E+00  0.000000000E+00  2.876992024E+01  2.876992024E+01  8.452817308E-08  0.00000E+00  9.000E+00
       1    -1     0     0   501     0  0.000000000E+00  0.000000000E+00 -1.359655321E+02  1.359655321E+02  1.316308501E-06  0.00000E+00  9.000E+00
     -24     2     1     2     0     0 -7.908617935E+00 -1.221117137E-01 -1.190920539E+02  1.504495682E+02  9.159472758E+01  0.00000E+00  9.000E+00
      11     1     3     3     0     0 -7.196948573E+00  2.220865519E+01 -1.251434835E+02  1.273024426E+02  5.109989100E-04  0.00000E+00  9.000E+00
     -12     1     3     3     0     0 -7.116693619E-01 -2.233076690E+01  6.051429571E+00  2.314712560E+01  7.669761509E-07  0.00000E+00  9.000E+00
      21     1     1     2   501   511  7.908617935E+00  1.221117137E-01  1.189644212E+01  1.428588408E+01  2.250853847E-07  0.00000E+00  9.000E+00
#rwgt            1           4   4614.5232053574200                1       12155           0
<rwgt>
<wgt id='ct10'>  0.501185669E+04 </wgt>
</rwgt>
</event>
<event>
      6  10011  5.01186E+03  1.52446E+01 -1.00000E+00  1.76677E-01
      -2    -1     0     0     0   501  0.000000000E+00  0.000000000E+00  4.078811033E+02  4.078811033E+02  3.270172018E-06  0.00000E+00  9.000E+00
      21    -1     0     0   501   511  0.000000000E+00  0.000000000E+00 -1.057323021E+01  1.057323021E+01  7.316444760E-08  0.00000E+00  9.000E+00
     -24     2     1     2     0     0  5.135183879E+00  1.435371344E+01  3.943587171E+02  4.029270438E+02  8.123426439E+01  0.00000E+00  9.000E+00
      11     1     3     3     0     0 -9.721319606E-01 -3.281281489E+01  1.169059939E+02  1.214274980E+02  5.109989100E-04  0.00000E+00  9.000E+00
     -12     1     3     3     0     0  6.107315840E+00  4.716652833E+01  2.774527232E+02  2.814995458E+02  5.469086863E-06  0.00000E+00  9.000E+00
      -1     1     1     2     0   511 -5.135183879E+00 -1.435371344E+01  2.949155975E+00  1.552728965E+01  0.000000000E+00  0.00000E+00  9.000E+00
#rwgt            1           4   1137.2496452962803                1       12230           0
<rwgt>
<wgt id='ct10'>  0.501185669E+04 </wgt>
</rwgt>
</event>
<event>
      6  10011  5.01186E+03  2.35287E+01 -1.00000E+00  1.60711E-01
      -2    -1     0     0     0   501  0.000000000E+00  0.000000000E+00  1.046341210E+02  1.046341210E+02  6.884708087E-07  0.00000E+00  9.000E+00
      21    -1     0     0   501   511  0.000000000E+00  0.000000000E+00 -3.706647771E+01  3.706647771E+01  2.711615425E-07  0.00000E+00  9.000E+00
     -24     2     1     2     0     0  7.267729419E+00 -2.237814652E+01  1.593063907E+01  8.495571756E+01  8.006302113E+01  0.00000E+00  9.000E+00
      11     1     3     3     0     0 -1.207211994E+01 -4.864958709E+01  4.248578730E+00  5.030475947E+01  5.109989100E-04  0.00000E+00  9.000E+00
     -12     1     3     3     0     0  1.933984935E+01  2.627144057E+01  1.168206035E+01  3.465095809E+01  8.232904155E-07  0.00000E+00  9.000E+00
      -1     1     1     2     0   511 -7.267729419E+00  2.237814652E+01  5.163700421E+01  5.674488114E+01  0.000000000E+00  0.00000E+00  9.000E+00
#rwgt            1           4   1959.5179060035007                1       12355           0
<rwgt>
<wgt id='ct10'>  0.501185669E+04 </wgt>
</rwgt>
</event>
<event>
      6  10011  5.01186E+03  1.06389E+01 -1.00000E+00  1.92642E-01
      -2    -1     0     0     0   511  0.000000000E+00  0.000000000E+00  1.339399214E+00  1.339399214E+00  1.020172714E-08  0.00000E+00  9.000E+00
       1    -1     0     0   501     0  0.000000000E+00  0.000000000E+00 -1.545188016E+03  1.545188016E+03  7.314501570E-06  0.00000E+00  9.000E+00
     -24     2     1     2     0     0  5.721974106E+00  8.969108043E+00 -1.397305856E+03  1.399598975E+03  7.937536735E+01  0.00000E+00  9.000E+00
      11     1     3     3     0     0  1.408977325E+01  3.615792528E+01 -1.151296262E+03  1.151950086E+03  5.109989100E-04  0.00000E+00  9.000E+00
     -12     1     3     3     0     0 -8.367799146E+00 -2.718881723E+01 -2.460095938E+02  2.476488887E+02  6.128500261E-06  0.00000E+00  9.000E+00
      21     1     1     2   501   511 -5.721974106E+00 -8.969108043E+00 -1.465427608E+02  1.469284405E+02  2.061617685E-06  0.00000E+00  9.000E+00
#rwgt            1           4   22548.162465699359                1       12412           0
<rwgt>
<wgt id='ct10'>  0.501185669E+04 </wgt>
</rwgt>
</event>
<event>
      6  10011  5.01186E+03  4.28651E+01 -1.00000E+00  1.42971E-01
      -2    -1     0     0     0   501  0.000000000E+00  0.000000000E+00  3.384410085E+01  3.384410085E+01  2.120696987E-07  0.00000E+00  9.000E+00
       1    -1     0     0   511     0  0.000000000E+00  0.000000000E+00 -2.175200166E+02  2.175200166E+02  6.298057896E-07  0.00000E+00  9.000E+00
     -24     2     1     2     0     0 -3.852313039E+01  1.879863511E+01 -3.659990362E+01  9.816890343E+01  8.037512300E+01  0.00000E+00  9.000E+00
      11     1     3     3     0     0  2.520544637E+00 -2.217189645E+00 -5.002934884E+01  5.014184700E+01  5.109989100E-04  0.00000E+00  9.000E+00
     -12     1     3     3     0     0 -4.104367503E+01  2.101582476E+01  1.342944521E+01  4.802705643E+01  9.911068140E-07  0.00000E+00  9.000E+00
      21     1     1     2   511   501  3.852313039E+01 -1.879863511E+01 -1.470760122E+02  1.531952141E+02  3.293067202E-07  0.00000E+00  9.000E+00
#rwgt            1           4   3426.8052469575896                1       12480           0
<rwgt>
<wgt id='ct10'>  0.501185669E+04 </wgt>
</rwgt>
</event>
<event>
      6  10011  5.01186E+03  5.41735E+00 -1.00000E+00  2.32506E-01
      -2    -1     0     0     0   511  0.000000000E+00  0.000000000E+00  2.752130813E+01  2.752130813E+01  9.609690145E-08  0.00000E+00  9.000E+00
       1    -1     0     0   501     0  0.000000000E+00  0.000000000E+00 -9.715661184E+01  9.715661184E+01  3.781858913E-07  0.00000E+00  9.000E+00
     -24     2     1     2     0     0 -2.497262744E+00 -4.807421974E+00 -7.752917465E+01  1.151039539E+02  8.490465042E+01  0.00000E+00  9.000E+00
      11     1     3     3     0     0  2.892532292E+00 -9.676637559E+00 -9.533766318E+01  9.587113266E+01  5.109989100E-04  0.00000E+00  9.000E+00
     -12     1     3     3     0     0 -5.389795036E+00  4.869215585E+00  1.780848852E+01  1.923282128E+01  6.874577833E-07  0.00000E+00  9.000E+00
      21     1     1     2   501   511  2.497262744E+00  4.807421974E+00  7.893870939E+00  9.573966035E+00  1.862446967E-07  0.00000E+00  9.000E+00
#rwgt            1           4   6208.2893580255713                1       12546           0
<rwgt>
<wgt id='ct10'>  0.501185669E+04 </wgt>
</rwgt>
</event>
<event>
      6  10011  5.01186E+03  2.18944E+01 -1.00000E+00  1.63150E-01
       1    -1     0     0   501     0  0.000000000E+00  0.000000000E+00  1.489562843E+02  1.489562843E+02  1.343582491E-06  0.00000E+00  9.000E+00
      21    -1     0     0   511   501  0.000000000E+00  0.000000000E+00 -4.493484360E+01  4.493484360E+01  2.855601085E-07  0.00000E+00  9.000E+00
     -24     2     1     2     0     0 -9.609057900E+00  1.967305033E+01  1.356379355E+02  1.554338055E+02  7.268187846E+01  0.00000E+00  9.000E+00
      11     1     3     3     0     0 -2.135675808E+01  2.094075890E+01  1.397560106E+02  1.429208488E+02  5.109989100E-04  0.00000E+00  9.000E+00
     -12     1     3     3     0     0  1.174770018E+01 -1.267708571E+00 -4.118075142E+00  1.251295679E+01  6.599544410E-07  0.00000E+00  9.000E+00
       2     1     1     2   511     0  9.609057900E+00 -1.967305033E+01 -3.161649477E+01  3.845732238E+01  0.000000000E+00  0.00000E+00  9.000E+00
#rwgt            1           8   4248.5783871061212                1       12741           0
<rwgt>
<wgt id='ct10'>  0.501185669E+04 </wgt>
</rwgt>
</event>
<event>
      6  10011  5.01186E+03  1.76999E+01 -1.00000E+00  1.70825E-01
      21    -1     0     0   511   501  0.000000000E+00  0.000000000E+00  5.051398968E+00  5.051398968E+00  2.882269534E-08  0.00000E+00  9.000E+00
       1    -1     0     0   501     0  0.000000000E+00  0.000000000E+00 -6.639484848E+02  6.639484848E+02  1.520068286E-06  0.00000E+00  9.000E+00
     -24     2     1     2     0     0 -1.592262443E+00 -1.762810471E+01 -6.289160234E+02  6.341839466E+02  7.962806218E+01  0.00000E+00  9.000E+00
      11     1     3     3     0     0  3.806764952E+01 -1.684878030E+01 -2.960209883E+02  2.989338604E+02  5.109989100E-04  0.00000E+00  9.000E+00
     -12     1     3     3     0     0 -3.965991197E+01 -7.793244143E-01 -3.328950351E+02  3.352500863E+02  3.448047887E-06  0.00000E+00  9.000E+00
       2     1     1     2   511     0  1.592262443E+00  1.762810471E+01 -2.998106250E+01  3.481593721E+01  0.000000000E+00  0.00000E+00  9.000E+00
#rwgt            1           4   3313.5519412043345                1       12801           0
<rwgt>
<wgt id='ct10'>  0.501185669E+04 </wgt>
</rwgt>
</event>
<event>
      6  10011  5.01186E+03  5.27475E+01 -1.00000E+00  1.37735E-01
       3    -1     0     0   501     0  0.000000000E+00  0.000000000E+00  1.693756080E+02  1.693756080E+02  1.088770327E-06  0.00000E+00  9.000E+00
      21    -1     0     0   511   501  0.000000000E+00  0.000000000E+00 -7.751245165E+01  7.751245165E+01  4.082016113E-07  0.00000E+00  9.000E+00
     -24     2     1     2     0     0  7.428284413E-01  5.274231601E+01  1.439388858E+02  1.727652880E+02  7.966892865E+01  0.00000E+00  9.000E+00
      11     1     3     3     0     0 -3.670195182E+01  1.308847116E+01  7.801947514E+01  8.720882895E+01  5.109989100E-04  0.00000E+00  9.000E+00
     -12     1     3     3     0     0  3.744478026E+01  3.965384485E+01  6.591941064E+01  8.555645901E+01  1.112273312E-06  0.00000E+00  9.000E+00
       4     1     1     2   511     0 -7.428284413E-01 -5.274231601E+01 -5.207572941E+01  7.412277171E+01  0.000000000E+00  0.00000E+00  9.000E+00
#rwgt            1           9   818.37122341160318                1       12880           0
<rwgt>
<wgt id='ct10'>  0.501185669E+04 </wgt>
</rwgt>
</event>
<event>
      6  10011  5.01186E+03  2.05684E+00 -1.00000E+00  3.57279E-01
      -2    -1     0     0     0   501  0.000000000E+00  0.000000000E+00  1.889924350E+01  1.889924350E+01  9.397661186E-08  0.00000E+00  9.000E+00
      21    -1     0     0   501   511  0.000000000E+00  0.000000000E+00 -1.364588422E+02  1.364588422E+02  1.048942854E-06  0.00000E+00  9.000E+00
     -24     2     1     2     0     0  2.044130328E+00 -2.283023072E-01 -6.709479056E+01  1.048513787E+02  8.054731595E+01  0.00000E+00  9.000E+00
      11     1     3     3     0     0  1.231897642E+01 -3.077468337E+01 -6.449921512E+01  7.251887387E+01  5.109989100E-04  0.00000E+00  9.000E+00
     -12     1     3     3     0     0 -1.027484609E+01  3.054638106E+01 -2.595575443E+00  3.233250485E+01  7.993009549E-07  0.00000E+00  9.000E+00
      -1     1     1     2     0   511 -2.044130328E+00  2.283023072E-01 -5.046480815E+01  5.050670700E+01  0.000000000E+00  0.00000E+00  9.000E+00
#rwgt            1           4   3678.8705028683453                1       12911           0
<rwgt>
<wgt id='ct10'>  0.501185669E+04 </wgt>
</rwgt>
</event>
<event>
      6  10011  5.01186E+03  1.48448E+01 -1.00000E+00  1.77762E-01
       3    -1     0     0   511     0  0.000000000E+00  0.000000000E+00  1.511155858E+02  1.511155858E+02  9.370079879E-07  0.00000E+00  9.000E+00
      -4    -1     0     0     0   501  0.000000000E+00  0.000000000E+00 -1.824508173E+01  1.824508173E+01  1.375295648E-07  0.00000E+00  9.000E+00
     -24     2     1     2     0     0 -4.926474207E+00 -1.400354602E+01  7.195872675E+01  1.066660580E+02  7.732541706E+01  0.00000E+00  9.000E+00
      11     1     3     3     0     0 -1.358175203E+01  1.446853292E+01  7.421475698E+01  7.682208398E+01  5.109989100E-04  0.00000E+00  9.000E+00
     -12     1     3     3     0     0  8.655277825E+00 -2.847207893E+01 -2.256030226E+00  2.984397402E+01  9.065978477E-07  0.00000E+00  9.000E+00
      21     1     1     2   511   501  4.926474207E+00  1.400354602E+01  6.091177733E+01  6.269460955E+01  8.076424304E-07  0.00000E+00  9.000E+00
#rwgt            1           9   1475.6878627199071                1       13221           0
<rwgt>
<wgt id='ct10'>  0.501185669E+04 </wgt>
</rwgt>
</event>
<event>
      6  10011  5.01186E+03  1.12913E+01 -1.00000E+00  1.89796E-01
       1    -1     0     0   511     0  0.000000000E+00  0.000000000E+00  1.416715295E+02  1.416715295E+02  1.143543242E-06  0.00000E+00  9.000E+00
      -2    -1     0     0     0   501  0.000000000E+00  0.000000000E+00 -1.202214117E+01  1.202214117E+01  9.818634214E-08  0.00000E+00  9.000E+00
     -24     2     1     2     0     0  1.095722450E+01  2.726413721E+00  1.062276447E+02  1.276922827E+02  6.995364514E+01  0.00000E+00  9.000E+00
      11     1     3     3     0     0  3.419059115E+01 -7.495310048E+00  2.616123948E+01  4.369881745E+01  5.109989100E-04  0.00000E+00  9.000E+00
     -12     1     3     3     0     0 -2.323336665E+01  1.022172377E+01  8.006640525E+01  8.399346529E+01  3.774626268E-07  0.00000E+00  9.000E+00
      21     1     1     2   511   501 -1.095722450E+01 -2.726413721E+00  2.342174360E+01  2.600138792E+01  3.858939972E-07  0.00000E+00  9.000E+00
#rwgt            1           8   619.73945914243359                1       13314           0
<rwgt>
<wgt id='ct10'>  0.501185669E+04 </wgt>
</rwgt>
</event>
<event>
      6  10011  5.01186E+03  2.69753E+01 -1.00000E+00  1.56280E-01
      21    -1     0     0   511   501  0.000000000E+00  0.000000000E+00  1.128323756E+01  1.128323756E+01  7.495998670E-08  0.00000E+00  9.000E+00
       3    -1     0     0   501     0  0.000000000E+00  0.000000000E+00 -2.835735226E+02  2.835735226E+02  8.642550200E-07  0.00000E+00  9.000E+00
     -24     2     1     2     0     0 -2.586489914E+01 -7.659914156E+00 -2.003624351E+02  2.180369522E+02  8.165378038E+01  0.00000E+00  9.000E+00
      11     1     3     3     0     0 -1.146078401E+01 -2.397123378E+01 -1.933601881E+02  1.951771809E+02  5.109989100E-04  0.00000E+00  9.000E+00
     -12     1     3     3     0     0 -1.440411513E+01  1.631131963E+01 -7.002247003E+00  2.285977130E+01  5.099885597E-07  0.00000E+00  9.000E+00
       4     1     1     2   511     0  2.586489914E+01  7.659914156E+00 -7.192784997E+01  7.681980795E+01  0.000000000E+00  0.00000E+00  9.000E+00
#rwgt            1           2   1271.6855688652095                1       13548           0
<rwgt>
<wgt id='ct10'>  0.501185669E+04 </wgt>
</rwgt>
</event>
<event>
      6  10011  5.01186E+03  1.65772E+01 -1.00000E+00  1.73343E-01
      -2    -1     0     0     0   501  0.000000000E+00  0.000000000E+00  1.220031063E+01  1.220031063E+01  7.576064809E-08  0.00000E+00  9.000E+00
       1    -1     0     0   511     0  0.000000000E+00  0.000000000E+00 -2.002573181E+02  2.002573181E+02  1.133386097E-06  0.00000E+00  9.000E+00
     -24     2     1     2     0     0  1.648151010E+01 -1.778901147E+00 -1.556718583E+02  1.760762798E+02  8.058736982E+01  0.00000E+00  9.000E+00
      11     1     3     3     0     0 -1.183178217E+01 -3.517419987E+01 -8.764356557E+01  9.517673030E+01  5.109989100E-04  0.00000E+00  9.000E+00
     -12     1     3     3     0     0  2.831329226E+01  3.339529872E+01 -6.802829275E+01  8.089954950E+01  1.235661510E-06  0.00000E+00  9.000E+00
      21     1     1     2   511   501 -1.648151010E+01  1.778901147E+00 -3.238514913E+01  3.638134891E+01  7.992166358E-07  0.00000E+00  9.000E+00
#rwgt            1           4   3041.5991968269236                1       13611           0
<rwgt>
<wgt id='ct10'>  0.501185669E+04 </wgt>
</rwgt>
</event>
<event>
      6  10011  5.01186E+03  8.08200E+00 -1.00000E+00  2.07028E-01
      21    -1     0     0   511   501  0.000000000E+00  0.000000000E+00  1.006398044E+02  1.006398044E+02  8.989889486E-07  0.00000E+00  9.000E+00
       3    -1     0     0   501     0  0.000000000E+00  0.000000000E+00 -2.258563758E+01  2.258563758E+01  3.419049414E-08  0.00000E+00  9.000E+00
     -24     2     1     2     0     0  2.784818510E+00 -7.587067151E+00  8.113193195E+01  1.145772375E+02  8.049990169E+01  0.00000E+00  9.000E+00
      11     1     3     3     0     0 -1.814268936E+00 -4.385152984E+01  5.030172931E+01  6.675711358E+01  5.109989100E-04  0.00000E+00  9.000E+00
     -12     1     3     3     0     0  4.599087446E+00  3.626446269E+01  3.083020264E+01  4.782012394E+01  7.879863488E-07  0.00000E+00  9.000E+00
       4     1     1     2   511     0 -2.784818510E+00  7.587067151E+00 -3.077765142E+00  8.648204459E+00  0.000000000E+00  0.00000E+00  9.000E+00
#rwgt            1           2   447.62388901417052                1       13744           0
<rwgt>
<wgt id='ct10'>  0.501185669E+04 </wgt>
</rwgt>
</event>
<event>
      6  10011  5.01186E+03  1.32892E+01 -1.00000E+00  1.82436E-01
       1    -1     0     0   501     0  0.000000000E+00  0.000000000E+00  3.351348865E+02  3.351348865E+02  8.589511787E-07  0.00000E+00  9.000E+00
      21    -1     0     0   511   501  0.000000000E+00  0.000000000E+00 -1.032223674E+01  1.032223674E+01  7.814135062E-08  0.00000E+00  9.000E+00
     -24     2     1     2     0     0  1.321911053E+01  1.362848377E+00  3.225937849E+02  3.319839796E+02  7.726584234E+01  0.00000E+00  9.000E+00
      11     1     3     3     0     0  2.248686295E+01 -1.495695979E+01  3.052091931E+02  3.064017317E+02  5.109989100E-04  0.00000E+00  9.000E+00
     -12     1     3     3     0     0 -9.267752426E+00  1.631980817E+01  1.738459188E+01  2.558224791E+01  1.534336155E-06  0.00000E+00  9.000E+00
       2     1     1     2   511     0 -1.321911053E+01 -1.362848377E+00  2.218864832E+00  1.347314366E+01  0.000000000E+00  0.00000E+00  9.000E+00
#rwgt            1           8   6333.0747490938038                1       13934           0
<rwgt>
<wgt id='ct10'>  0.501185669E+04 </wgt>
</rwgt>
</event>
<event>
      6  10011 -5.01186E+03  2.85278E+01 -1.00000E+00  1.54538E-01
      21    -1     0     0   501   511  0.000000000E+00  0.000000000E+00  6.980136883E+01  6.980136883E+01  3.425732295E-07  0.00000E+00  9.000E+00
      -4    -1     0     0     0   501  0.000000000E+00  0.000000000E+00 -8.717698406E+01  8.717698406E+01  6.543979139E-07  0.00000E+00  9.000E+00
     -24     2     1     2     0     0 -2.648042558E+01  1.061240137E+01 -5.997182334E+01  1.057116683E+02  8.224658790E+01  0.00000E+00  9.000E+00
      11     1     3     3     0     0  5.316624708E+00  1.423517505E+01  1.673020676E+01  2.260102930E+01  5.109989100E-04  0.00000E+00  9.000E+00
     -12     1     3     3     0     0 -3.179705029E+01 -3.622773675E+00 -7.670203010E+01  8.311063902E+01  6.906491665E-07  0.00000E+00  9.000E+00
      -3     1     1     2     0   511  2.648042558E+01 -1.061240137E+01  4.259620811E+01  5.126668457E+01  0.000000000E+00  0.00000E+00  9.000E+00
#rwgt            1           9  -1316.9722302175990                1       14059           0
<rwgt>
<wgt id='ct10'> -0.501185669E+04 </wgt>
</rwgt>
</event>
<event>
      6  10011  5.01186E+03  7.13924E+00 -1.00000E+00  2.14281E-01
       1    -1     0     0   501     0  0.000000000E+00  0.000000000E+00  1.118531969E+02  1.118531969E+02  2.908669843E-07  0.00000E+00  9.000E+00
      -2    -1     0     0     0   511  0.000000000E+00  0.000000000E+00 -1.656730143E+01  1.656730143E+01  1.461741616E-07  0.00000E+00  9.000E+00
     -24     2     1     2     0     0  6.974403193E+00 -1.525255636E+00  8.824738528E+01  1.183950642E+02  7.860548012E+01  0.00000E+00  9.000E+00
      11     1     3     3     0     0 -2.670289753E+00 -9.534425637E+00  1.004283641E+02  1.009152715E+02  5.109989100E-04  0.00000E+00  9.000E+00
     -12     1     3     3     0     0  9.644692946E+00  8.009170001E+00 -1.218097879E+01  1.747979263E+01  7.144963457E-07  0.00000E+00  9.000E+00
      21     1     1     2   501   511 -6.974403193E+00  1.525255636E+00  7.038510222E+00  1.002543419E+01  1.017116504E-07  0.00000E+00  9.000E+00
#rwgt            1           8   3851.7315169518297                1       14125           0
<rwgt>
<wgt id='ct10'>  0.501185669E+04 </wgt>
</rwgt>
</event>
<event>
      6  10011  5.01186E+03  3.46301E+00 -1.00000E+00  2.79029E-01
      -2    -1     0     0     0   501  0.000000000E+00  0.000000000E+00  7.010642409E+00  7.010642409E+00  5.191025589E-08  0.00000E+00  9.000E+00
       1    -1     0     0   511     0  0.000000000E+00  0.000000000E+00 -4.463225231E+02  4.463225231E+02  2.780176710E-06  0.00000E+00  9.000E+00
     -24     2     1     2     0     0 -1.607006494E+00 -3.067562853E+00 -2.210106964E+02  2.350045154E+02  7.980853280E+01  0.00000E+00  9.000E+00
      11     1     3     3     0     0  3.567875269E+01 -8.929741079E-01 -1.559845833E+02  1.600155024E+02  5.109989100E-04  0.00000E+00  9.000E+00
     -12     1     3     3     0     0 -3.728575919E+01 -2.174588746E+00 -6.502611319E+01  7.498901300E+01  4.075649205E-07  0.00000E+00  9.000E+00
      21     1     1     2   511   501  1.607006494E+00  3.067562853E+00 -2.183011843E+02  2.183286501E+02  3.358229903E-06  0.00000E+00  9.000E+00
#rwgt            1           4   4290.5089914796154                1       14206           0
<rwgt>
<wgt id='ct10'>  0.501185669E+04 </wgt>
</rwgt>
</event>
<event>
      6  10011  5.01186E+03  5.33267E+01 -1.00000E+00  1.37470E-01
      21    -1     0     0   511   501  0.000000000E+00  0.000000000E+00  2.676204558E+01  2.676204558E+01  2.181270880E-07  0.00000E+00  9.000E+00
       1    -1     0     0   501     0  0.000000000E+00  0.000000000E+00 -3.998495110E+02  3.998495110E+02  1.822549602E-06  0.00000E+00  9.000E+00
     -24     2     1     2     0     0  1.174879730E+01 -5.201634609E+01 -3.586298464E+02  3.713597942E+02  8.030563834E+01  0.00000E+00  9.000E+00
      11     1     3     3     0     0  2.347396276E+01 -1.020751276E+01 -2.829686487E+02  2.841240511E+02  5.109989100E-04  0.00000E+00  9.000E+00
     -12     1     3     3     0     0 -1.172516545E+01 -4.180883334E+01 -7.566119768E+01  8.723574315E+01  5.309006641E-07  0.00000E+00  9.000E+00
       2     1     1     2   511     0 -1.174879730E+01  5.201634609E+01 -1.445761908E+01  5.525176240E+01  0.000000000E+00  0.00000E+00  9.000E+00
#rwgt            1           4   6333.2836056526030                1       14478           0
<rwgt>
<wgt id='ct10'>  0.501185669E+04 </wgt>
</rwgt>
</event>
<event>
      6  10011  5.01186E+03  6.49863E+00 -1.00000E+00  2.20144E-01
       1    -1     0     0   501     0  0.000000000E+00  0.000000000E+00  1.742427433E+01  1.742427433E+01  1.544453686E-07  0.00000E+00  9.000E+00
      21    -1     0     0   511   501  0.000000000E+00  0.000000000E+00 -1.017630940E+02  1.017630940E+02  8.583162190E-07  0.00000E+00  9.000E+00
     -24     2     1     2     0     0 -6.408394307E+00 -1.079180952E+00 -7.796790722E+01  1.100867819E+02  7.744593490E+01  0.00000E+00  9.000E+00
      11     1     3     3     0     0  2.388251381E+01 -2.632878604E+01 -2.264237591E+01  4.214565965E+01  5.109989100E-04  0.00000E+00  9.000E+00
     -12     1     3     3     0     0 -3.029090812E+01  2.524960509E+01 -5.532553132E+01  6.794112221E+01  5.960173122E-07  0.00000E+00  9.000E+00
       2     1     1     2   511     0  6.408394307E+00  1.079180952E+00 -6.370912484E+00  9.100586519E+00  0.000000000E+00  0.00000E+00  9.000E+00
#rwgt            1           8   1937.8557077505679                1       14540           0
<rwgt>
<wgt id='ct10'>  0.501185669E+04 </wgt>
</rwgt>
</event>
<event>
      6  10011  5.01186E+03  1.08704E+01 -1.00000E+00  1.91603E-01
      -4    -1     0     0     0   501  0.000000000E+00  0.000000000E+00  1.561111964E+02  1.561111964E+02  1.209278081E-06  0.00000E+00  9.000E+00
      21    -1     0     0   501   511  0.000000000E+00  0.000000000E+00 -1.341969966E+01  1.341969966E+01  7.343624516E-08  0.00000E+00  9.000E+00
     -24     2     1     2     0     0 -1.087031410E+01  3.793985250E-02  1.334454443E+02  1.552601339E+02  7.861206905E+01  0.00000E+00  9.000E+00
      11     1     3     3     0     0  2.280661997E+00 -1.687507382E+01 -2.872353910E+00  1.726904609E+01  5.109989100E-04  0.00000E+00  9.000E+00
     -12     1     3     3     0     0 -1.315097610E+01  1.691301367E+01  1.363177982E+02  1.379910878E+02  2.015930031E-06  0.00000E+00  9.000E+00
      -1     1     1     2     0   511  1.087031410E+01 -3.793985250E-02  9.246052515E+00  1.427076225E+01  0.000000000E+00  0.00000E+00  9.000E+00
#rwgt            1           1   65.063516500793739                1       14667           0
<rwgt>
<wgt id='ct10'>  0.501185669E+04 </wgt>
</rwgt>
</event>
<event>
      6  10011  5.01186E+03  3.82241E+00 -1.00000E+00  2.68093E-01
       3    -1     0     0   501     0  0.000000000E+00  0.000000000E+00  2.987534806E+01  2.987534806E+01  1.890257053E-07  0.00000E+00  9.000E+00
      21    -1     0     0   511   501  0.000000000E+00  0.000000000E+00 -6.221282862E+01  6.221282862E+01  4.746266176E-07  0.00000E+00  9.000E+00
     -24     2     1     2     0     0 -3.470778018E+00  1.601413262E+00 -2.900455210E+01  8.701676300E+01  8.195146232E+01  0.00000E+00  9.000E+00
      11     1     3     3     0     0  9.445232153E+00 -2.107626956E+00  2.738680974E+01  2.904637412E+01  5.109989100E-04  0.00000E+00  9.000E+00
     -12     1     3     3     0     0 -1.291601017E+01  3.709040218E+00 -5.639136183E+01  5.797038888E+01  8.339561405E-07  0.00000E+00  9.000E+00
       4     1     1     2   511     0  3.470778018E+00 -1.601413262E+00 -3.332928469E+00  5.071413675E+00  0.000000000E+00  0.00000E+00  9.000E+00
#rwgt            1           9   1072.3811659838414                1       14799           0
<rwgt>
<wgt id='ct10'>  0.501185669E+04 </wgt>
</rwgt>
</event>
<event>
      6  10011  5.01186E+03  1.73260E+00 -1.00000E+00  3.94647E-01
       1    -1     0     0   501     0  0.000000000E+00  0.000000000E+00  3.511642340E+02  3.511642340E+02  2.575133524E-06  0.00000E+00  9.000E+00
      -2    -1     0     0     0   511  0.000000000E+00  0.000000000E+00 -7.095154951E+00  7.095154951E+00  3.911693873E-08  0.00000E+00  9.000E+00
     -24     2     1     2     0     0  3.360997320E-01 -1.699685877E+00  3.462319710E+02  3.554881082E+02  8.057428508E+01  0.00000E+00  9.000E+00
      11     1     3     3     0     0  1.966667182E+01  4.296460091E+00  3.268364001E+02  3.274557527E+02  5.109989100E-04  0.00000E+00  9.000E+00
     -12     1     3     3     0     0 -1.933057209E+01 -5.996145969E+00  1.939557096E+01  2.803235553E+01  1.182205815E-06  0.00000E+00  9.000E+00
      21     1     1     2   501   511 -3.360997320E-01  1.699685877E+00 -2.162891996E+00  2.771280732E+00  1.850995694E-07  0.00000E+00  9.000E+00
#rwgt            1           8   5798.8325000844297                1       14974           0
<rwgt>
<wgt id='ct10'>  0.501185669E+04 </wgt>
</rwgt>
</event>
<event>
      6  10011  5.01186E+03  6.47052E+00 -1.00000E+00  2.20423E-01
       1    -1     0     0   501     0  0.000000000E+00  0.000000000E+00  4.614259387E+02  4.614259387E+02  3.800022110E-06  0.00000E+00  9.000E+00
      21    -1     0     0   511   501  0.000000000E+00  0.000000000E+00 -7.399665447E+00  7.399665447E+00  5.684329106E-08  0.00000E+00  9.000E+00
     -24     2     1     2     0     0 -5.486984532E+00 -3.429381157E+00  4.553438486E+02  4.622222974E+02  7.918057898E+01  0.00000E+00  9.000E+00
      11     1     3     3     0     0  5.829618814E+00 -2.161122657E+01  4.220005236E+02  4.225937428E+02  5.109989100E-04  0.00000E+00  9.000E+00
     -12     1     3     3     0     0 -1.131660335E+01  1.818184542E+01  3.334332508E+01  3.962855462E+01  1.676815943E-06  0.00000E+00  9.000E+00
       2     1     1     2   511     0  5.486984532E+00  3.429381157E+00 -1.317575413E+00  6.603306698E+00  0.000000000E+00  0.00000E+00  9.000E+00
#rwgt            1           8   8234.9748667666681                1       15293           0
<rwgt>
<wgt id='ct10'>  0.501185669E+04 </wgt>
</rwgt>
</event>
<event>
      6  10011  5.01186E+03  5.14377E+00 -1.00000E+00  2.36298E-01
       1    -1     0     0   511     0  0.000000000E+00  0.000000000E+00  6.589397967E+00  6.589397967E+00  5.912550870E-08  0.00000E+00  9.000E+00
      -2    -1     0     0     0   501  0.000000000E+00  0.000000000E+00 -2.622538236E+02  2.622538236E+02  1.487205412E-06  0.00000E+00  9.000E+00
     -24     2     1     2     0     0  3.388428098E+00  3.870006343E+00 -2.564349540E+02  2.636420575E+02  6.100647880E+01  0.00000E+00  9.000E+00
      11     1     3     3     0     0  2.838153325E+01  5.342281973E+00 -7.297845998E+01  7.848507519E+01  5.109989100E-04  0.00000E+00  9.000E+00
     -12     1     3     3     0     0 -2.499310515E+01 -1.472275630E+00 -1.834564940E+02  1.851569823E+02  3.341342310E-06  0.00000E+00  9.000E+00
      21     1     1     2   511   501 -3.388428098E+00 -3.870006343E+00  7.705283339E-01  5.201164099E+00  7.872734853E-08  0.00000E+00  9.000E+00
#rwgt            1           8   1707.9595877453967                1       15388           0
<rwgt>
<wgt id='ct10'>  0.501185669E+04 </wgt>
</rwgt>
</event>
<event>
      6  10011  5.01186E+03  1.49714E+01 -1.00000E+00  1.77414E-01
      -2    -1     0     0     0   501  0.000000000E+00  0.000000000E+00  6.822914920E+01  6.822914920E+01  4.955069138E-07  0.00000E+00  9.000E+00
       1    -1     0     0   511     0  0.000000000E+00  0.000000000E+00 -3.453079835E+01  3.453079835E+01  1.646951051E-07  0.00000E+00  9.000E+00
     -24     2     1     2     0     0  5.484707195E+00 -1.393060907E+01  3.113419869E+01  8.757051839E+01  8.046808983E+01  0.00000E+00  9.000E+00
      11     1     3     3     0     0  1.323390668E+01 -4.522797638E+01  2.883458188E+01  5.524616951E+01  5.109989100E-04  0.00000E+00  9.000E+00
     -12     1     3     3     0     0 -7.749199489E+00  3.129736731E+01  2.299616819E+00  3.232434888E+01  9.220729745E-07  0.00000E+00  9.000E+00
      21     1     1     2   511   501 -5.484707195E+00  1.393060907E+01  2.564152158E+00  1.518942917E+01  6.976709629E-08  0.00000E+00  9.000E+00
#rwgt            1           4   823.52615542813055                1       15522           0
<rwgt>
<wgt id='ct10'>  0.501185669E+04 </wgt>
</rwgt>
</event>
</LesHouchesEvents>
 #Random number generator exit values:            1         15570             0
