<LesHouchesEvents version="1.0">
<header>
<!--
# created by SHERPA 3.0.1
# Run data extracted from : Sherpa.yaml
-->
<SHRunCard>
BEAMS: [11, -11]
BEAM_ENERGIES: 22.0

ALPHAS(MZ): 0.1188
ORDER_ALPHAS: 1
PDF_LIBRARY: None

PROCESSES:
- 11 -11 -> 93 93 93{1}:
    CKKW: 5.
    Order: {QCD: 0, EW: 2}

EVENT_OUTPUT:
  - LHEF[sherpa.lhe]
</SHRunCard>
</header>
<init>
    11    -11          22          22   0   0     -1     -1    3    1
                 1                  1                  1    1
</init>
<event trials='1' muf2='1936' mur2='1936'>
   4    1   6.7565396236e+02   4.4000000000e+01  -1.0000000000e+00   1.3366244227e-01
      11 -1  0  0    0    0  -0.0000000000e+00  -0.0000000000e+00   2.2000000000e+01   2.2000000000e+01   0.0000000000e+00  0  9
     -11 -1  0  0    0    0   0.0000000000e+00   0.0000000000e+00  -2.2000000000e+01   2.2000000000e+01   0.0000000000e+00  0  9
       4  1  1  2    0    0  -1.8313073445e+01  -1.2019009398e+01  -2.0432214996e+00   2.2000000000e+01   0.0000000000e+00  0  9
      -4  1  1  2    0    0   1.8313073445e+01   1.2019009398e+01   2.0432214996e+00   2.2000000000e+01   0.0000000000e+00  0  9
</event>
<event trials='8' muf2='1.9360000000e+03' mur2='1.1203629759e+02'>
   5    1   6.7565396236e+02   4.4000000000e+01  -1.0000000000e+00   1.7776640529e-01
      11 -1  0  0    0    0   0.0000000000e+00   0.0000000000e+00   2.2000000000e+01   2.2000000000e+01   0.0000000000e+00  0  9
     -11 -1  0  0    0    0  -0.0000000000e+00  -0.0000000000e+00  -2.2000000000e+01   2.2000000000e+01   0.0000000000e+00  0  9
      21  1  1  2    0    0  -1.1782586362e+01  -7.7644616299e+00   6.3226363670e-01   1.4125011968e+01   0.0000000000e+00  0  9
       4  1  1  2    0    0   1.3523623944e+01  -5.3207755849e+00  -5.8698167803e+00   1.5673347008e+01   0.0000000000e+00  0  9
      -4  1  1  2    0    0  -1.7410375819e+00   1.3085237215e+01   5.2375531436e+00   1.4201641023e+01   0.0000000000e+00  0  9
</event>
<event trials='1' muf2='1.9360000000e+03' mur2='1.9360000000e+03'>
   4    1   6.7565396236e+02   4.4000000000e+01  -1.0000000000e+00   1.3366244227e-01
      11 -1  0  0    0    0  -0.0000000000e+00  -0.0000000000e+00   2.2000000000e+01   2.2000000000e+01   0.0000000000e+00  0  9
     -11 -1  0  0    0    0   0.0000000000e+00   0.0000000000e+00  -2.2000000000e+01   2.2000000000e+01   0.0000000000e+00  0  9
       4  1  1  2    0    0  -9.3124261354e+00  -1.8296927691e+01  -7.9057672960e+00   2.2000000000e+01   0.0000000000e+00  0  9
      -4  1  1  2    0    0   9.3124261354e+00   1.8296927691e+01   7.9057672960e+00   2.2000000000e+01   0.0000000000e+00  0  9
</event>
<event trials='1' muf2='1.9360000000e+03' mur2='7.0213899340e+00'>
   5    1   6.7565396236e+02   4.4000000000e+01  -1.0000000000e+00   2.7469437406e-01
      11 -1  0  0    0    0   0.0000000000e+00   0.0000000000e+00   2.2000000000e+01   2.2000000000e+01   0.0000000000e+00  0  9
     -11 -1  0  0    0    0  -0.0000000000e+00  -0.0000000000e+00  -2.2000000000e+01   2.2000000000e+01   0.0000000000e+00  0  9
      21  1  1  2    0    0   3.8528188246e+00  -9.1468517319e-01   1.5785016049e+00   4.2629249557e+00   0.0000000000e+00  0  9
       1  1  1  2    0    0   1.0696768250e+01   9.6563349250e+00  -1.2894285704e+01   1.9337224697e+01   0.0000000000e+00  0  9
      -1  1  1  2    0    0  -1.4549587074e+01  -8.7416497518e+00   1.1315784099e+01   2.0399850347e+01   0.0000000000e+00  0  9
</event>
<event trials='1' muf2='1.9360000000e+03' mur2='1.9360000000e+03'>
   4    1   6.7565396236e+02   4.4000000000e+01  -1.0000000000e+00   1.3366244227e-01
      11 -1  0  0    0    0   0.0000000000e+00   0.0000000000e+00   2.2000000000e+01   2.2000000000e+01   0.0000000000e+00  0  9
     -11 -1  0  0    0    0  -0.0000000000e+00  -0.0000000000e+00  -2.2000000000e+01   2.2000000000e+01   0.0000000000e+00  0  9
       1  1  1  2    0    0  -1.1786174705e+01  -1.7548343334e+01  -6.0944016978e+00   2.2000000000e+01   0.0000000000e+00  0  9
      -1  1  1  2    0    0   1.1786174705e+01   1.7548343334e+01   6.0944016978e+00   2.2000000000e+01   0.0000000000e+00  0  9
</event>
<event trials='2' muf2='1.9360000000e+03' mur2='2.3170029486e+01'>
   5    1   6.7565396236e+02   4.4000000000e+01  -1.0000000000e+00   2.1884171002e-01
      11 -1  0  0    0    0  -0.0000000000e+00  -0.0000000000e+00   2.2000000000e+01   2.2000000000e+01   0.0000000000e+00  0  9
     -11 -1  0  0    0    0   0.0000000000e+00   0.0000000000e+00  -2.2000000000e+01   2.2000000000e+01   0.0000000000e+00  0  9
      21  1  1  2    0    0  -3.7816015532e+00   5.7932845007e+00  -1.1201520268e+00   7.0083804247e+00   0.0000000000e+00  0  9
       4  1  1  2    0    0   1.6465990991e+01   6.0465342265e+00   6.6817225784e+00   1.8770584756e+01   0.0000000000e+00  0  9
      -4  1  1  2    0    0  -1.2684389438e+01  -1.1839818727e+01  -5.5615705516e+00   1.8221034820e+01   0.0000000000e+00  0  9
</event>
<event trials='3' muf2='1.9360000000e+03' mur2='1.9360000000e+03'>
   4    1   6.7565396236e+02   4.4000000000e+01  -1.0000000000e+00   1.3366244227e-01
      11 -1  0  0    0    0  -0.0000000000e+00  -0.0000000000e+00   2.2000000000e+01   2.2000000000e+01   0.0000000000e+00  0  9
     -11 -1  0  0    0    0   0.0000000000e+00   0.0000000000e+00  -2.2000000000e+01   2.2000000000e+01   0.0000000000e+00  0  9
       3  1  1  2    0    0   1.9268096372e+00  -2.1212911159e+01  -5.5045258447e+00   2.2000000000e+01   0.0000000000e+00  0  9
      -3  1  1  2    0    0  -1.9268096372e+00   2.1212911159e+01   5.5045258447e+00   2.2000000000e+01   0.0000000000e+00  0  9
</event>
<event trials='3' muf2='1.9360000000e+03' mur2='1.9360000000e+03'>
   4    1   6.7565396236e+02   4.4000000000e+01  -1.0000000000e+00   1.3366244227e-01
      11 -1  0  0    0    0   0.0000000000e+00   0.0000000000e+00   2.2000000000e+01   2.2000000000e+01   0.0000000000e+00  0  9
     -11 -1  0  0    0    0  -0.0000000000e+00  -0.0000000000e+00  -2.2000000000e+01   2.2000000000e+01   0.0000000000e+00  0  9
       4  1  1  2    0    0   2.0156964966e+01  -5.7811621572e+00  -6.6539407469e+00   2.2000000000e+01   0.0000000000e+00  0  9
      -4  1  1  2    0    0  -2.0156964966e+01   5.7811621572e+00   6.6539407469e+00   2.2000000000e+01   0.0000000000e+00  0  9
</event>
<event trials='2' muf2='1.9360000000e+03' mur2='1.9360000000e+03'>
   4    1   6.7565396236e+02   4.4000000000e+01  -1.0000000000e+00   1.3366244227e-01
      11 -1  0  0    0    0   0.0000000000e+00   0.0000000000e+00   2.2000000000e+01   2.2000000000e+01   0.0000000000e+00  0  9
     -11 -1  0  0    0    0  -0.0000000000e+00  -0.0000000000e+00  -2.2000000000e+01   2.2000000000e+01   0.0000000000e+00  0  9
       4  1  1  2    0    0  -9.0517052296e+00   6.1133162184e+00  -1.9096963037e+01   2.2000000000e+01   0.0000000000e+00  0  9
      -4  1  1  2    0    0   9.0517052296e+00  -6.1133162184e+00   1.9096963037e+01   2.2000000000e+01   0.0000000000e+00  0  9
</event>
<event trials='3' muf2='1.9360000000e+03' mur2='1.9360000000e+03'>
   4    1   6.7565396236e+02   4.4000000000e+01  -1.0000000000e+00   1.3366244227e-01
      11 -1  0  0    0    0   0.0000000000e+00   0.0000000000e+00   2.2000000000e+01   2.2000000000e+01   0.0000000000e+00  0  9
     -11 -1  0  0    0    0  -0.0000000000e+00  -0.0000000000e+00  -2.2000000000e+01   2.2000000000e+01   0.0000000000e+00  0  9
       2  1  1  2    0    0   1.1767544035e+01   8.7312363484e+00  -1.6410070664e+01   2.2000000000e+01   0.0000000000e+00  0  9
      -2  1  1  2    0    0  -1.1767544035e+01  -8.7312363484e+00   1.6410070664e+01   2.2000000000e+01   0.0000000000e+00  0  9
</event>
<event trials='4' muf2='1.9360000000e+03' mur2='5.7081721618e+01'>
   5    1   6.7565396236e+02   4.4000000000e+01  -1.0000000000e+00   1.9311456681e-01
      11 -1  0  0    0    0   0.0000000000e+00   0.0000000000e+00   2.2000000000e+01   2.2000000000e+01   0.0000000000e+00  0  9
     -11 -1  0  0    0    0  -0.0000000000e+00  -0.0000000000e+00  -2.2000000000e+01   2.2000000000e+01   0.0000000000e+00  0  9
      21  1  1  2    0    0  -9.8382797835e+00   6.3382510636e+00   7.2574815801e+00   1.3770846544e+01   0.0000000000e+00  0  9
       4  1  1  2    0    0   4.3501040194e-01  -5.6030378839e+00   9.4779426903e+00   1.1018832298e+01   0.0000000000e+00  0  9
      -4  1  1  2    0    0   9.4032693816e+00  -7.3521317969e-01  -1.6735424270e+01   1.9210321158e+01   0.0000000000e+00  0  9
</event>
<event trials='7' muf2='1.9360000000e+03' mur2='1.7633381343e+01'>
   5    1   6.7565396236e+02   4.4000000000e+01  -1.0000000000e+00   2.2929939067e-01
      11 -1  0  0    0    0   0.0000000000e+00   0.0000000000e+00   2.2000000000e+01   2.2000000000e+01   0.0000000000e+00  0  9
     -11 -1  0  0    0    0  -0.0000000000e+00  -0.0000000000e+00  -2.2000000000e+01   2.2000000000e+01   0.0000000000e+00  0  9
      21  1  1  2    0    0  -8.9577545434e+00  -1.3851241253e-02  -1.8413407772e+00   9.1450584566e+00   0.0000000000e+00  0  9
       2  1  1  2    0    0   1.7943003241e+01  -9.9854578963e+00  -2.5970528441e+00   2.0697956860e+01   0.0000000000e+00  0  9
      -2  1  1  2    0    0  -8.9852486976e+00   9.9993091376e+00   4.4383936213e+00   1.4156984683e+01   0.0000000000e+00  0  9
</event>
<event trials='3' muf2='1.9360000000e+03' mur2='1.9360000000e+03'>
   4    1   6.7565396236e+02   4.4000000000e+01  -1.0000000000e+00   1.3366244227e-01
      11 -1  0  0    0    0  -0.0000000000e+00  -0.0000000000e+00   2.2000000000e+01   2.2000000000e+01   0.0000000000e+00  0  9
     -11 -1  0  0    0    0   0.0000000000e+00   0.0000000000e+00  -2.2000000000e+01   2.2000000000e+01   0.0000000000e+00  0  9
       3  1  1  2    0    0  -1.0373777516e+01   8.8908842995e+00  -1.7243460106e+01   2.2000000000e+01   0.0000000000e+00  0  9
      -3  1  1  2    0    0   1.0373777516e+01  -8.8908842995e+00   1.7243460106e+01   2.2000000000e+01   0.0000000000e+00  0  9
</event>
<event trials='1' muf2='1.9360000000e+03' mur2='1.9360000000e+03'>
   4    1   6.7565396236e+02   4.4000000000e+01  -1.0000000000e+00   1.3366244227e-01
      11 -1  0  0    0    0   0.0000000000e+00   0.0000000000e+00   2.2000000000e+01   2.2000000000e+01   0.0000000000e+00  0  9
     -11 -1  0  0    0    0  -0.0000000000e+00  -0.0000000000e+00  -2.2000000000e+01   2.2000000000e+01   0.0000000000e+00  0  9
       4  1  1  2    0    0  -1.6401912486e+01   7.4744942270e+00   1.2613849644e+01   2.2000000000e+01   0.0000000000e+00  0  9
      -4  1  1  2    0    0   1.6401912486e+01  -7.4744942270e+00  -1.2613849644e+01   2.2000000000e+01   0.0000000000e+00  0  9
</event>
<event trials='2' muf2='1.9360000000e+03' mur2='1.9360000000e+03'>
   4    1   6.7565396236e+02   4.4000000000e+01  -1.0000000000e+00   1.3366244227e-01
      11 -1  0  0    0    0  -0.0000000000e+00  -0.0000000000e+00   2.2000000000e+01   2.2000000000e+01   0.0000000000e+00  0  9
     -11 -1  0  0    0    0   0.0000000000e+00   0.0000000000e+00  -2.2000000000e+01   2.2000000000e+01   0.0000000000e+00  0  9
       4  1  1  2    0    0   2.0104750267e+01  -4.1045676401e+00  -7.9342007266e+00   2.2000000000e+01   0.0000000000e+00  0  9
      -4  1  1  2    0    0  -2.0104750267e+01   4.1045676401e+00   7.9342007266e+00   2.2000000000e+01   0.0000000000e+00  0  9
</event>
<event trials='1' muf2='1.9360000000e+03' mur2='1.9360000000e+03'>
   4    1   6.7565396236e+02   4.4000000000e+01  -1.0000000000e+00   1.3366244227e-01
      11 -1  0  0    0    0   0.0000000000e+00   0.0000000000e+00   2.2000000000e+01   2.2000000000e+01   0.0000000000e+00  0  9
     -11 -1  0  0    0    0  -0.0000000000e+00  -0.0000000000e+00  -2.2000000000e+01   2.2000000000e+01   0.0000000000e+00  0  9
       2  1  1  2    0    0   7.0370729814e+00  -9.6474343882e+00  -1.8477191712e+01   2.2000000000e+01   0.0000000000e+00  0  9
      -2  1  1  2    0    0  -7.0370729814e+00   9.6474343882e+00   1.8477191712e+01   2.2000000000e+01   0.0000000000e+00  0  9
</event>
<event trials='5' muf2='1.9360000000e+03' mur2='1.9360000000e+03'>
   4    1   6.7565396236e+02   4.4000000000e+01  -1.0000000000e+00   1.3366244227e-01
      11 -1  0  0    0    0   0.0000000000e+00   0.0000000000e+00   2.2000000000e+01   2.2000000000e+01   0.0000000000e+00  0  9
     -11 -1  0  0    0    0  -0.0000000000e+00  -0.0000000000e+00  -2.2000000000e+01   2.2000000000e+01   0.0000000000e+00  0  9
       4  1  1  2    0    0   2.1212026688e+01  -8.3412637277e-01   5.7753057917e+00   2.2000000000e+01   0.0000000000e+00  0  9
      -4  1  1  2    0    0  -2.1212026688e+01   8.3412637277e-01  -5.7753057917e+00   2.2000000000e+01   0.0000000000e+00  0  9
</event>
<event trials='1' muf2='1.9360000000e+03' mur2='2.2781741654e+01'>
   5    1   6.7565396236e+02   4.4000000000e+01  -1.0000000000e+00   2.1945843552e-01
      11 -1  0  0    0    0  -0.0000000000e+00  -0.0000000000e+00   2.2000000000e+01   2.2000000000e+01   0.0000000000e+00  0  9
     -11 -1  0  0    0    0   0.0000000000e+00   0.0000000000e+00  -2.2000000000e+01   2.2000000000e+01   0.0000000000e+00  0  9
      21  1  1  2    0    0  -9.9058191393e+00   3.9236297431e+00   1.9194462292e+00   1.0826097959e+01   0.0000000000e+00  0  9
       4  1  1  2    0    0  -1.0326775132e+01  -3.7550044172e+00   4.6056735319e+00   1.1914468997e+01   0.0000000000e+00  0  9
      -4  1  1  2    0    0   2.0232594272e+01  -1.6862532594e-01  -6.5251197612e+00   2.1259433044e+01   0.0000000000e+00  0  9
</event>
<event trials='4' muf2='1.9360000000e+03' mur2='1.9360000000e+03'>
   4    1   6.7565396236e+02   4.4000000000e+01  -1.0000000000e+00   1.3366244227e-01
      11 -1  0  0    0    0   0.0000000000e+00   0.0000000000e+00   2.2000000000e+01   2.2000000000e+01   0.0000000000e+00  0  9
     -11 -1  0  0    0    0  -0.0000000000e+00  -0.0000000000e+00  -2.2000000000e+01   2.2000000000e+01   0.0000000000e+00  0  9
       4  1  1  2    0    0   2.2146711241e+00   1.2583699352e+01  -1.7909375824e+01   2.2000000000e+01   0.0000000000e+00  0  9
      -4  1  1  2    0    0  -2.2146711241e+00  -1.2583699352e+01   1.7909375824e+01   2.2000000000e+01   0.0000000000e+00  0  9
</event>
<event trials='3' muf2='1.9360000000e+03' mur2='1.9360000000e+03'>
   4    1   6.7565396236e+02   4.4000000000e+01  -1.0000000000e+00   1.3366244227e-01
      11 -1  0  0    0    0   0.0000000000e+00   0.0000000000e+00   2.2000000000e+01   2.2000000000e+01   0.0000000000e+00  0  9
     -11 -1  0  0    0    0  -0.0000000000e+00  -0.0000000000e+00  -2.2000000000e+01   2.2000000000e+01   0.0000000000e+00  0  9
       2  1  1  2    0    0  -5.8497734202e+00  -1.7640898677e+01  -1.1771951614e+01   2.2000000000e+01   0.0000000000e+00  0  9
      -2  1  1  2    0    0   5.8497734202e+00   1.7640898677e+01   1.1771951614e+01   2.2000000000e+01   0.0000000000e+00  0  9
</event>
<event trials='6' muf2='1.9360000000e+03' mur2='1.9360000000e+03'>
   4    1   6.7565396236e+02   4.4000000000e+01  -1.0000000000e+00   1.3366244227e-01
      11 -1  0  0    0    0   0.0000000000e+00   0.0000000000e+00   2.2000000000e+01   2.2000000000e+01   0.0000000000e+00  0  9
     -11 -1  0  0    0    0  -0.0000000000e+00  -0.0000000000e+00  -2.2000000000e+01   2.2000000000e+01   0.0000000000e+00  0  9
       1  1  1  2    0    0  -4.9486918540e+00   7.5321865908e+00   2.0069295306e+01   2.2000000000e+01   0.0000000000e+00  0  9
      -1  1  1  2    0    0   4.9486918540e+00  -7.5321865908e+00  -2.0069295306e+01   2.2000000000e+01   0.0000000000e+00  0  9
</event>
<event trials='2' muf2='1.9360000000e+03' mur2='1.9360000000e+03'>
   4    1   6.7565396236e+02   4.4000000000e+01  -1.0000000000e+00   1.3366244227e-01
      11 -1  0  0    0    0   0.0000000000e+00   0.0000000000e+00   2.2000000000e+01   2.2000000000e+01   0.0000000000e+00  0  9
     -11 -1  0  0    0    0  -0.0000000000e+00  -0.0000000000e+00  -2.2000000000e+01   2.2000000000e+01   0.0000000000e+00  0  9
       4  1  1  2    0    0  -1.3167644445e+01   1.1018182730e+01   1.3755463973e+01   2.2000000000e+01   0.0000000000e+00  0  9
      -4  1  1  2    0    0   1.3167644445e+01  -1.1018182730e+01  -1.3755463973e+01   2.2000000000e+01   0.0000000000e+00  0  9
</event>
<event trials='2' muf2='1.9360000000e+03' mur2='1.9360000000e+03'>
   4    1   6.7565396236e+02   4.4000000000e+01  -1.0000000000e+00   1.3366244227e-01
      11 -1  0  0    0    0   0.0000000000e+00   0.0000000000e+00   2.2000000000e+01   2.2000000000e+01   0.0000000000e+00  0  9
     -11 -1  0  0    0    0  -0.0000000000e+00  -0.0000000000e+00  -2.2000000000e+01   2.2000000000e+01   0.0000000000e+00  0  9
       2  1  1  2    0    0  -1.3190431433e+01   1.5699374355e+01   7.9713338585e+00   2.2000000000e+01   0.0000000000e+00  0  9
      -2  1  1  2    0    0   1.3190431433e+01  -1.5699374355e+01  -7.9713338585e+00   2.2000000000e+01   0.0000000000e+00  0  9
</event>
<event trials='8' muf2='1.9360000000e+03' mur2='1.3065065247e+01'>
   5    1   6.7565396236e+02   4.4000000000e+01  -1.0000000000e+00   2.4214350940e-01
      11 -1  0  0    0    0   0.0000000000e+00   0.0000000000e+00   2.2000000000e+01   2.2000000000e+01   0.0000000000e+00  0  9
     -11 -1  0  0    0    0  -0.0000000000e+00  -0.0000000000e+00  -2.2000000000e+01   2.2000000000e+01   0.0000000000e+00  0  9
      21  1  1  2    0    0  -4.0794757203e-01   6.4094277122e+00  -9.4601063353e-01   6.4916963067e+00   0.0000000000e+00  0  9
       2  1  1  2    0    0  -1.2782334465e+01   4.5947316455e+00  -1.0239105422e+01   1.7009965112e+01   0.0000000000e+00  0  9
      -2  1  1  2    0    0   1.3190282037e+01  -1.1004159358e+01   1.1185116056e+01   2.0498338581e+01   0.0000000000e+00  0  9
</event>
<event trials='4' muf2='1.9360000000e+03' mur2='1.9360000000e+03'>
   4    1   6.7565396236e+02   4.4000000000e+01  -1.0000000000e+00   1.3366244227e-01
      11 -1  0  0    0    0  -0.0000000000e+00  -0.0000000000e+00   2.2000000000e+01   2.2000000000e+01   0.0000000000e+00  0  9
     -11 -1  0  0    0    0   0.0000000000e+00   0.0000000000e+00  -2.2000000000e+01   2.2000000000e+01   0.0000000000e+00  0  9
       4  1  1  2    0    0  -1.1459649669e+01  -1.0678782432e+01  -1.5447978354e+01   2.2000000000e+01   0.0000000000e+00  0  9
      -4  1  1  2    0    0   1.1459649669e+01   1.0678782432e+01   1.5447978354e+01   2.2000000000e+01   0.0000000000e+00  0  9
</event>
<event trials='1' muf2='1.9360000000e+03' mur2='1.9360000000e+03'>
   4    1   6.7565396236e+02   4.4000000000e+01  -1.0000000000e+00   1.3366244227e-01
      11 -1  0  0    0    0   0.0000000000e+00   0.0000000000e+00   2.2000000000e+01   2.2000000000e+01   0.0000000000e+00  0  9
     -11 -1  0  0    0    0  -0.0000000000e+00  -0.0000000000e+00  -2.2000000000e+01   2.2000000000e+01   0.0000000000e+00  0  9
       4  1  1  2    0    0  -1.6114801262e+01  -1.3927347699e+01   5.5083723883e+00   2.2000000000e+01   0.0000000000e+00  0  9
      -4  1  1  2    0    0   1.6114801262e+01   1.3927347699e+01  -5.5083723883e+00   2.2000000000e+01   0.0000000000e+00  0  9
</event>
<event trials='4' muf2='1.9360000000e+03' mur2='1.9083060901e+01'>
   5    1   6.7565396236e+02   4.4000000000e+01  -1.0000000000e+00   2.2616166804e-01
      11 -1  0  0    0    0   0.0000000000e+00   0.0000000000e+00   2.2000000000e+01   2.2000000000e+01   0.0000000000e+00  0  9
     -11 -1  0  0    0    0  -0.0000000000e+00  -0.0000000000e+00  -2.2000000000e+01   2.2000000000e+01   0.0000000000e+00  0  9
      21  1  1  2    0    0  -3.2723394941e+00   2.6711388126e+00   4.7379796063e+00   6.3475695404e+00   0.0000000000e+00  0  9
       2  1  1  2    0    0  -1.3977725746e+01  -2.2333378143e+00  -1.2356736370e+01   1.8789719225e+01   0.0000000000e+00  0  9
      -2  1  1  2    0    0   1.7250065240e+01  -4.3780099830e-01   7.6187567636e+00   1.8862711235e+01   0.0000000000e+00  0  9
</event>
<event trials='3' muf2='1.9360000000e+03' mur2='1.9360000000e+03'>
   4    1   6.7565396236e+02   4.4000000000e+01  -1.0000000000e+00   1.3366244227e-01
      11 -1  0  0    0    0   0.0000000000e+00   0.0000000000e+00   2.2000000000e+01   2.2000000000e+01   0.0000000000e+00  0  9
     -11 -1  0  0    0    0  -0.0000000000e+00  -0.0000000000e+00  -2.2000000000e+01   2.2000000000e+01   0.0000000000e+00  0  9
       4  1  1  2    0    0   1.7276194215e+01  -1.0534729030e+01   8.6343846171e+00   2.2000000000e+01   0.0000000000e+00  0  9
      -4  1  1  2    0    0  -1.7276194215e+01   1.0534729030e+01  -8.6343846171e+00   2.2000000000e+01   0.0000000000e+00  0  9
</event>
<event trials='2' muf2='1.9360000000e+03' mur2='3.1249500411e+01'>
   5    1   6.7565396236e+02   4.4000000000e+01  -1.0000000000e+00   2.0942440648e-01
      11 -1  0  0    0    0  -0.0000000000e+00  -0.0000000000e+00   2.2000000000e+01   2.2000000000e+01   0.0000000000e+00  0  9
     -11 -1  0  0    0    0   0.0000000000e+00   0.0000000000e+00  -2.2000000000e+01   2.2000000000e+01   0.0000000000e+00  0  9
      21  1  1  2    0    0   1.5463092140e+01  -1.1163280290e+00   4.7095927838e-03   1.5503336059e+01   0.0000000000e+00  0  9
       2  1  1  2    0    0  -1.9897071385e+01  -2.6095492172e+00  -5.1848489877e+00   2.0726453046e+01   0.0000000000e+00  0  9
      -2  1  1  2    0    0   4.4339792456e+00   3.7258772462e+00   5.1801393949e+00   7.7702108951e+00   0.0000000000e+00  0  9
</event>
<event trials='2' muf2='1.9360000000e+03' mur2='1.9360000000e+03'>
   4    1   6.7565396236e+02   4.4000000000e+01  -1.0000000000e+00   1.3366244227e-01
      11 -1  0  0    0    0   0.0000000000e+00   0.0000000000e+00   2.2000000000e+01   2.2000000000e+01   0.0000000000e+00  0  9
     -11 -1  0  0    0    0  -0.0000000000e+00  -0.0000000000e+00  -2.2000000000e+01   2.2000000000e+01   0.0000000000e+00  0  9
       2  1  1  2    0    0   4.5778276849e+00   2.1110222765e+01   4.1715690674e+00   2.2000000000e+01   0.0000000000e+00  0  9
      -2  1  1  2    0    0  -4.5778276849e+00  -2.1110222765e+01  -4.1715690674e+00   2.2000000000e+01   0.0000000000e+00  0  9
</event>
<event trials='6' muf2='1.9360000000e+03' mur2='1.9360000000e+03'>
   4    1   6.7565396236e+02   4.4000000000e+01  -1.0000000000e+00   1.3366244227e-01
      11 -1  0  0    0    0   0.0000000000e+00   0.0000000000e+00   2.2000000000e+01   2.2000000000e+01   0.0000000000e+00  0  9
     -11 -1  0  0    0    0  -0.0000000000e+00  -0.0000000000e+00  -2.2000000000e+01   2.2000000000e+01   0.0000000000e+00  0  9
       4  1  1  2    0    0   6.8256346108e+00  -2.0741464085e+01   2.6837249793e+00   2.2000000000e+01   0.0000000000e+00  0  9
      -4  1  1  2    0    0  -6.8256346108e+00   2.0741464085e+01  -2.6837249793e+00   2.2000000000e+01   0.0000000000e+00  0  9
</event>
<event trials='4' muf2='1.9360000000e+03' mur2='1.9360000000e+03'>
   4    1   6.7565396236e+02   4.4000000000e+01  -1.0000000000e+00   1.3366244227e-01
      11 -1  0  0    0    0   0.0000000000e+00   0.0000000000e+00   2.2000000000e+01   2.2000000000e+01   0.0000000000e+00  0  9
     -11 -1  0  0    0    0  -0.0000000000e+00  -0.0000000000e+00  -2.2000000000e+01   2.2000000000e+01   0.0000000000e+00  0  9
       3  1  1  2    0    0   1.4338860237e+01  -9.5996751775e+00  -1.3647099457e+01   2.2000000000e+01   0.0000000000e+00  0  9
      -3  1  1  2    0    0  -1.4338860237e+01   9.5996751775e+00   1.3647099457e+01   2.2000000000e+01   0.0000000000e+00  0  9
</event>
<event trials='1' muf2='1.9360000000e+03' mur2='1.4952012960e+01'>
   5    1   6.7565396236e+02   4.4000000000e+01  -1.0000000000e+00   2.3617188817e-01
      11 -1  0  0    0    0   0.0000000000e+00   0.0000000000e+00   2.2000000000e+01   2.2000000000e+01   0.0000000000e+00  0  9
     -11 -1  0  0    0    0  -0.0000000000e+00  -0.0000000000e+00  -2.2000000000e+01   2.2000000000e+01   0.0000000000e+00  0  9
      21  1  1  2    0    0   9.6808192625e+00  -1.8621297953e+00   4.6011405500e+00   1.0879167401e+01   0.0000000000e+00  0  9
       4  1  1  2    0    0  -1.4271738561e+01   3.8125274391e-01  -1.5578122782e+01   2.1130683486e+01   0.0000000000e+00  0  9
      -4  1  1  2    0    0   4.5909192982e+00   1.4808770514e+00   1.0976982232e+01   1.1990149113e+01   0.0000000000e+00  0  9
</event>
<event trials='10' muf2='1.9360000000e+03' mur2='1.9360000000e+03'>
   4    1   6.7565396236e+02   4.4000000000e+01  -1.0000000000e+00   1.3366244227e-01
      11 -1  0  0    0    0   0.0000000000e+00   0.0000000000e+00   2.2000000000e+01   2.2000000000e+01   0.0000000000e+00  0  9
     -11 -1  0  0    0    0  -0.0000000000e+00  -0.0000000000e+00  -2.2000000000e+01   2.2000000000e+01   0.0000000000e+00  0  9
       2  1  1  2    0    0  -1.6929507580e+01  -1.8938120961e+00  -1.3921395363e+01   2.2000000000e+01   0.0000000000e+00  0  9
      -2  1  1  2    0    0   1.6929507580e+01   1.8938120961e+00   1.3921395363e+01   2.2000000000e+01   0.0000000000e+00  0  9
</event>
<event trials='2' muf2='1.9360000000e+03' mur2='1.9360000000e+03'>
   4    1   6.7565396236e+02   4.4000000000e+01  -1.0000000000e+00   1.3366244227e-01
      11 -1  0  0    0    0   0.0000000000e+00   0.0000000000e+00   2.2000000000e+01   2.2000000000e+01   0.0000000000e+00  0  9
     -11 -1  0  0    0    0  -0.0000000000e+00  -0.0000000000e+00  -2.2000000000e+01   2.2000000000e+01   0.0000000000e+00  0  9
       4  1  1  2    0    0   1.7214276439e+01   1.3694958670e+01   3.4175093951e-01   2.2000000000e+01   0.0000000000e+00  0  9
      -4  1  1  2    0    0  -1.7214276439e+01  -1.3694958670e+01  -3.4175093951e-01   2.2000000000e+01   0.0000000000e+00  0  9
</event>
<event trials='2' muf2='1.9360000000e+03' mur2='2.2532139246e+01'>
   5    1   6.7565396236e+02   4.4000000000e+01  -1.0000000000e+00   2.1986252164e-01
      11 -1  0  0    0    0   0.0000000000e+00   0.0000000000e+00   2.2000000000e+01   2.2000000000e+01   0.0000000000e+00  0  9
     -11 -1  0  0    0    0  -0.0000000000e+00  -0.0000000000e+00  -2.2000000000e+01   2.2000000000e+01   0.0000000000e+00  0  9
      21  1  1  2    0    0   5.2146699838e+00   7.7591400646e+00   1.3154365633e+01   1.6137979204e+01   0.0000000000e+00  0  9
       4  1  1  2    0    0  -9.8073981645e+00  -6.1258277835e+00  -1.7735847641e+01   2.1172414041e+01   0.0000000000e+00  0  9
      -4  1  1  2    0    0   4.5927281808e+00  -1.6333122810e+00   4.5814820076e+00   6.6896067550e+00   0.0000000000e+00  0  9
</event>
<event trials='5' muf2='1.9360000000e+03' mur2='1.9360000000e+03'>
   4    1   6.7565396236e+02   4.4000000000e+01  -1.0000000000e+00   1.3366244227e-01
      11 -1  0  0    0    0   0.0000000000e+00   0.0000000000e+00   2.2000000000e+01   2.2000000000e+01   0.0000000000e+00  0  9
     -11 -1  0  0    0    0  -0.0000000000e+00  -0.0000000000e+00  -2.2000000000e+01   2.2000000000e+01   0.0000000000e+00  0  9
       5  1  1  2    0    0   1.6963414651e+01   6.2094070876e+00  -1.2557301741e+01   2.2000000000e+01   0.0000000000e+00  0  9
      -5  1  1  2    0    0  -1.6963414651e+01  -6.2094070876e+00   1.2557301741e+01   2.2000000000e+01   0.0000000000e+00  0  9
</event>
<event trials='4' muf2='1.9360000000e+03' mur2='4.4896232431e+01'>
   5    1   6.7565396236e+02   4.4000000000e+01  -1.0000000000e+00   1.9928175244e-01
      11 -1  0  0    0    0   0.0000000000e+00   0.0000000000e+00   2.2000000000e+01   2.2000000000e+01   0.0000000000e+00  0  9
     -11 -1  0  0    0    0  -0.0000000000e+00  -0.0000000000e+00  -2.2000000000e+01   2.2000000000e+01   0.0000000000e+00  0  9
      21  1  1  2    0    0   4.8157388928e+00   2.0239921821e+00  -8.8478492183e+00   1.0274839231e+01   0.0000000000e+00  0  9
       2  1  1  2    0    0  -1.7109151072e+01  -7.8973715783e+00   6.2653792057e+00   1.9858159654e+01   0.0000000000e+00  0  9
      -2  1  1  2    0    0   1.2293412179e+01   5.8733793962e+00   2.5824700127e+00   1.3867001115e+01   0.0000000000e+00  0  9
</event>
<event trials='5' muf2='1.9360000000e+03' mur2='3.4858769947e+01'>
   5    1   6.7565396236e+02   4.4000000000e+01  -1.0000000000e+00   2.0625087824e-01
      11 -1  0  0    0    0  -0.0000000000e+00  -0.0000000000e+00   2.2000000000e+01   2.2000000000e+01   0.0000000000e+00  0  9
     -11 -1  0  0    0    0   0.0000000000e+00   0.0000000000e+00  -2.2000000000e+01   2.2000000000e+01   0.0000000000e+00  0  9
      21  1  1  2    0    0  -8.4999021690e+00  -3.4683410080e-01   3.7517104390e+00   9.2975245090e+00   0.0000000000e+00  0  9
       2  1  1  2    0    0   9.4197984958e+00  -7.7296848351e+00  -1.5932737878e+01   2.0058234410e+01   0.0000000000e+00  0  9
      -2  1  1  2    0    0  -9.1989632673e-01   8.0765189359e+00   1.2181027439e+01   1.4644241081e+01   0.0000000000e+00  0  9
</event>
<event trials='8' muf2='1.9360000000e+03' mur2='1.9360000000e+03'>
   4    1   6.7565396236e+02   4.4000000000e+01  -1.0000000000e+00   1.3366244227e-01
      11 -1  0  0    0    0   0.0000000000e+00   0.0000000000e+00   2.2000000000e+01   2.2000000000e+01   0.0000000000e+00  0  9
     -11 -1  0  0    0    0  -0.0000000000e+00  -0.0000000000e+00  -2.2000000000e+01   2.2000000000e+01   0.0000000000e+00  0  9
       4  1  1  2    0    0   6.0823656567e+00   3.1275782228e+00  -2.0909880021e+01   2.2000000000e+01   0.0000000000e+00  0  9
      -4  1  1  2    0    0  -6.0823656567e+00  -3.1275782228e+00   2.0909880021e+01   2.2000000000e+01   0.0000000000e+00  0  9
</event>
<event trials='8' muf2='1.9360000000e+03' mur2='1.2050983715e+02'>
   5    1   6.7565396236e+02   4.4000000000e+01  -1.0000000000e+00   1.7625908561e-01
      11 -1  0  0    0    0   0.0000000000e+00   0.0000000000e+00   2.2000000000e+01   2.2000000000e+01   0.0000000000e+00  0  9
     -11 -1  0  0    0    0  -0.0000000000e+00  -0.0000000000e+00  -2.2000000000e+01   2.2000000000e+01   0.0000000000e+00  0  9
      21  1  1  2    0    0  -1.7374783498e+01   1.7523659717e+00   5.3791665845e+00   1.8272638596e+01   0.0000000000e+00  0  9
       3  1  1  2    0    0   1.3003294014e+01  -8.9607423887e-01  -1.2020277783e+01   1.7730642465e+01   0.0000000000e+00  0  9
      -3  1  1  2    0    0   4.3714894838e+00  -8.5629173288e-01   6.6411111982e+00   7.9967189388e+00   0.0000000000e+00  0  9
</event>
<event trials='1' muf2='1.9360000000e+03' mur2='1.9360000000e+03'>
   4    1   6.7565396236e+02   4.4000000000e+01  -1.0000000000e+00   1.3366244227e-01
      11 -1  0  0    0    0  -0.0000000000e+00  -0.0000000000e+00   2.2000000000e+01   2.2000000000e+01   0.0000000000e+00  0  9
     -11 -1  0  0    0    0   0.0000000000e+00   0.0000000000e+00  -2.2000000000e+01   2.2000000000e+01   0.0000000000e+00  0  9
       2  1  1  2    0    0  -8.5966104546e+00  -1.5812303766e+01   1.2651851181e+01   2.2000000000e+01   0.0000000000e+00  0  9
      -2  1  1  2    0    0   8.5966104546e+00   1.5812303766e+01  -1.2651851181e+01   2.2000000000e+01   0.0000000000e+00  0  9
</event>
<event trials='3' muf2='1.9360000000e+03' mur2='1.9360000000e+03'>
   4    1   6.7565396236e+02   4.4000000000e+01  -1.0000000000e+00   1.3366244227e-01
      11 -1  0  0    0    0   0.0000000000e+00   0.0000000000e+00   2.2000000000e+01   2.2000000000e+01   0.0000000000e+00  0  9
     -11 -1  0  0    0    0  -0.0000000000e+00  -0.0000000000e+00  -2.2000000000e+01   2.2000000000e+01   0.0000000000e+00  0  9
       3  1  1  2    0    0   1.8950686783e+01   6.7250346372e+00  -8.9244260085e+00   2.2000000000e+01   0.0000000000e+00  0  9
      -3  1  1  2    0    0  -1.8950686783e+01  -6.7250346372e+00   8.9244260085e+00   2.2000000000e+01   0.0000000000e+00  0  9
</event>
<event trials='1' muf2='1.9360000000e+03' mur2='1.9360000000e+03'>
   4    1   6.7565396236e+02   4.4000000000e+01  -1.0000000000e+00   1.3366244227e-01
      11 -1  0  0    0    0   0.0000000000e+00   0.0000000000e+00   2.2000000000e+01   2.2000000000e+01   0.0000000000e+00  0  9
     -11 -1  0  0    0    0  -0.0000000000e+00  -0.0000000000e+00  -2.2000000000e+01   2.2000000000e+01   0.0000000000e+00  0  9
       4  1  1  2    0    0   1.8368573682e+01   1.0742246165e+01   5.5856645255e+00   2.2000000000e+01   0.0000000000e+00  0  9
      -4  1  1  2    0    0  -1.8368573682e+01  -1.0742246165e+01  -5.5856645255e+00   2.2000000000e+01   0.0000000000e+00  0  9
</event>
<event trials='1' muf2='1.9360000000e+03' mur2='1.9360000000e+03'>
   4    1   6.7565396236e+02   4.4000000000e+01  -1.0000000000e+00   1.3366244227e-01
      11 -1  0  0    0    0   0.0000000000e+00   0.0000000000e+00   2.2000000000e+01   2.2000000000e+01   0.0000000000e+00  0  9
     -11 -1  0  0    0    0  -0.0000000000e+00  -0.0000000000e+00  -2.2000000000e+01   2.2000000000e+01   0.0000000000e+00  0  9
       2  1  1  2    0    0   9.2645816437e+00   3.6850326200e+00  -1.9610916897e+01   2.2000000000e+01   0.0000000000e+00  0  9
      -2  1  1  2    0    0  -9.2645816437e+00  -3.6850326200e+00   1.9610916897e+01   2.2000000000e+01   0.0000000000e+00  0  9
</event>
<event trials='1' muf2='1.9360000000e+03' mur2='1.9360000000e+03'>
   4    1   6.7565396236e+02   4.4000000000e+01  -1.0000000000e+00   1.3366244227e-01
      11 -1  0  0    0    0   0.0000000000e+00   0.0000000000e+00   2.2000000000e+01   2.2000000000e+01   0.0000000000e+00  0  9
     -11 -1  0  0    0    0  -0.0000000000e+00  -0.0000000000e+00  -2.2000000000e+01   2.2000000000e+01   0.0000000000e+00  0  9
       1  1  1  2    0    0   8.9334683183e+00  -7.8805500221e+00   1.8495677202e+01   2.2000000000e+01   0.0000000000e+00  0  9
      -1  1  1  2    0    0  -8.9334683183e+00   7.8805500221e+00  -1.8495677202e+01   2.2000000000e+01   0.0000000000e+00  0  9
</event>
<event trials='4' muf2='1.9360000000e+03' mur2='1.9360000000e+03'>
   4    1   6.7565396236e+02   4.4000000000e+01  -1.0000000000e+00   1.3366244227e-01
      11 -1  0  0    0    0   0.0000000000e+00   0.0000000000e+00   2.2000000000e+01   2.2000000000e+01   0.0000000000e+00  0  9
     -11 -1  0  0    0    0  -0.0000000000e+00  -0.0000000000e+00  -2.2000000000e+01   2.2000000000e+01   0.0000000000e+00  0  9
       4  1  1  2    0    0  -7.4300167407e+00  -2.9341619258e+00  -2.0498427867e+01   2.2000000000e+01   0.0000000000e+00  0  9
      -4  1  1  2    0    0   7.4300167407e+00   2.9341619258e+00   2.0498427867e+01   2.2000000000e+01   0.0000000000e+00  0  9
</event>
<event trials='4' muf2='1.9360000000e+03' mur2='1.9360000000e+03'>
   4    1   6.7565396236e+02   4.4000000000e+01  -1.0000000000e+00   1.3366244227e-01
      11 -1  0  0    0    0   0.0000000000e+00   0.0000000000e+00   2.2000000000e+01   2.2000000000e+01   0.0000000000e+00  0  9
     -11 -1  0  0    0    0  -0.0000000000e+00  -0.0000000000e+00  -2.2000000000e+01   2.2000000000e+01   0.0000000000e+00  0  9
       1  1  1  2    0    0  -6.9121666625e+00  -5.8036048475e+00  -2.0063402573e+01   2.2000000000e+01   0.0000000000e+00  0  9
      -1  1  1  2    0    0   6.9121666625e+00   5.8036048475e+00   2.0063402573e+01   2.2000000000e+01   0.0000000000e+00  0  9
</event>
<event trials='4' muf2='1.9360000000e+03' mur2='2.4481436803e+01'>
   5    1   6.7565396236e+02   4.4000000000e+01  -1.0000000000e+00   2.1690245123e-01
      11 -1  0  0    0    0  -0.0000000000e+00  -0.0000000000e+00   2.2000000000e+01   2.2000000000e+01   0.0000000000e+00  0  9
     -11 -1  0  0    0    0   0.0000000000e+00   0.0000000000e+00  -2.2000000000e+01   2.2000000000e+01   0.0000000000e+00  0  9
      21  1  1  2    0    0  -5.4865179221e+00  -2.0876941471e-01   9.6533816754e+00   1.1105550025e+01   0.0000000000e+00  0  9
       4  1  1  2    0    0   3.6517628819e+00  -6.9521768553e+00   9.5226144798e+00   1.2342946233e+01   0.0000000000e+00  0  9
      -4  1  1  2    0    0   1.8347550402e+00   7.1609462700e+00  -1.9175996155e+01   2.0551503743e+01   0.0000000000e+00  0  9
</event>
<event trials='1' muf2='1.9360000000e+03' mur2='2.7368863576e+01'>
   5    1   6.7565396236e+02   4.4000000000e+01  -1.0000000000e+00   2.1341711187e-01
      11 -1  0  0    0    0  -0.0000000000e+00  -0.0000000000e+00   2.2000000000e+01   2.2000000000e+01   0.0000000000e+00  0  9
     -11 -1  0  0    0    0   0.0000000000e+00   0.0000000000e+00  -2.2000000000e+01   2.2000000000e+01   0.0000000000e+00  0  9
      21  1  1  2    0    0  -4.9181712466e-01   3.6933760206e+00   7.2944604183e+00   8.1909745029e+00   0.0000000000e+00  0  9
       2  1  1  2    0    0  -1.5486769112e+01  -2.5937148663e+00  -1.1243742099e+01   1.9312926001e+01   0.0000000000e+00  0  9
      -2  1  1  2    0    0   1.5978586237e+01  -1.0996611543e+00   3.9492816805e+00   1.6496099496e+01   0.0000000000e+00  0  9
</event>
<event trials='2' muf2='1.9360000000e+03' mur2='1.9360000000e+03'>
   4    1   6.7565396236e+02   4.4000000000e+01  -1.0000000000e+00   1.3366244227e-01
      11 -1  0  0    0    0   0.0000000000e+00   0.0000000000e+00   2.2000000000e+01   2.2000000000e+01   0.0000000000e+00  0  9
     -11 -1  0  0    0    0  -0.0000000000e+00  -0.0000000000e+00  -2.2000000000e+01   2.2000000000e+01   0.0000000000e+00  0  9
       2  1  1  2    0    0   1.7527250613e+01   8.6527937618e+00   1.0095773673e+01   2.2000000000e+01   0.0000000000e+00  0  9
      -2  1  1  2    0    0  -1.7527250613e+01  -8.6527937618e+00  -1.0095773673e+01   2.2000000000e+01   0.0000000000e+00  0  9
</event>
<event trials='11' muf2='1.9360000000e+03' mur2='2.4927801101e+01'>
   5    1   6.7565396236e+02   4.4000000000e+01  -1.0000000000e+00   2.1632936048e-01
      11 -1  0  0    0    0   0.0000000000e+00   0.0000000000e+00   2.2000000000e+01   2.2000000000e+01   0.0000000000e+00  0  9
     -11 -1  0  0    0    0  -0.0000000000e+00  -0.0000000000e+00  -2.2000000000e+01   2.2000000000e+01   0.0000000000e+00  0  9
      21  1  1  2    0    0   3.5200188435e+00   3.9287844060e+00   4.8361180384e+00   7.1563899593e+00   0.0000000000e+00  0  9
       2  1  1  2    0    0  -4.1379885129e+00   1.2988725545e+01  -1.2282852814e+01   1.8349343679e+01   0.0000000000e+00  0  9
      -2  1  1  2    0    0   6.1796966942e-01  -1.6917509951e+01   7.4467347752e+00   1.8494266362e+01   0.0000000000e+00  0  9
</event>
<event trials='2' muf2='1.9360000000e+03' mur2='9.3128000209e+01'>
   5    1   6.7565396236e+02   4.4000000000e+01  -1.0000000000e+00   1.8171240666e-01
      11 -1  0  0    0    0   0.0000000000e+00   0.0000000000e+00   2.2000000000e+01   2.2000000000e+01   0.0000000000e+00  0  9
     -11 -1  0  0    0    0  -0.0000000000e+00  -0.0000000000e+00  -2.2000000000e+01   2.2000000000e+01   0.0000000000e+00  0  9
      21  1  1  2    0    0  -1.3320764375e+01   7.0377979838e+00   7.9608665630e+00   1.7039623248e+01   0.0000000000e+00  0  9
       4  1  1  2    0    0  -2.1560605806e+00   2.9890169615e+00  -7.6785924499e+00   8.5172531743e+00   0.0000000000e+00  0  9
      -4  1  1  2    0    0   1.5476824955e+01  -1.0026814945e+01  -2.8227411313e-01   1.8443123578e+01   0.0000000000e+00  0  9
</event>
<event trials='4' muf2='1.9360000000e+03' mur2='1.9360000000e+03'>
   4    1   6.7565396236e+02   4.4000000000e+01  -1.0000000000e+00   1.3366244227e-01
      11 -1  0  0    0    0   0.0000000000e+00   0.0000000000e+00   2.2000000000e+01   2.2000000000e+01   0.0000000000e+00  0  9
     -11 -1  0  0    0    0  -0.0000000000e+00  -0.0000000000e+00  -2.2000000000e+01   2.2000000000e+01   0.0000000000e+00  0  9
       3  1  1  2    0    0   1.2336755154e+01   1.7832739574e+01  -3.7145486346e+00   2.2000000000e+01   0.0000000000e+00  0  9
      -3  1  1  2    0    0  -1.2336755154e+01  -1.7832739574e+01   3.7145486346e+00   2.2000000000e+01   0.0000000000e+00  0  9
</event>
<event trials='4' muf2='1.9360000000e+03' mur2='7.6720609843e+00'>
   5    1   6.7565396236e+02   4.4000000000e+01  -1.0000000000e+00   2.6945138351e-01
      11 -1  0  0    0    0   0.0000000000e+00   0.0000000000e+00   2.2000000000e+01   2.2000000000e+01   0.0000000000e+00  0  9
     -11 -1  0  0    0    0  -0.0000000000e+00  -0.0000000000e+00  -2.2000000000e+01   2.2000000000e+01   0.0000000000e+00  0  9
      21  1  1  2    0    0  -1.1144939200e+00  -1.6027386917e+00  -3.9504000170e+00   4.4064189889e+00   0.0000000000e+00  0  9
       4  1  1  2    0    0  -1.7187515537e+01   7.8254266859e+00  -2.8549888798e+00   1.9099710853e+01   0.0000000000e+00  0  9
      -4  1  1  2    0    0   1.8302009457e+01  -6.2226879942e+00   6.8053888968e+00   2.0493870158e+01   0.0000000000e+00  0  9
</event>
<event trials='2' muf2='1.9360000000e+03' mur2='1.9360000000e+03'>
   4    1   6.7565396236e+02   4.4000000000e+01  -1.0000000000e+00   1.3366244227e-01
      11 -1  0  0    0    0   0.0000000000e+00   0.0000000000e+00   2.2000000000e+01   2.2000000000e+01   0.0000000000e+00  0  9
     -11 -1  0  0    0    0  -0.0000000000e+00  -0.0000000000e+00  -2.2000000000e+01   2.2000000000e+01   0.0000000000e+00  0  9
       2  1  1  2    0    0  -4.8580048584e+00  -2.1367059652e+01  -1.9617723139e+00   2.2000000000e+01   0.0000000000e+00  0  9
      -2  1  1  2    0    0   4.8580048584e+00   2.1367059652e+01   1.9617723139e+00   2.2000000000e+01   0.0000000000e+00  0  9
</event>
<event trials='2' muf2='1.9360000000e+03' mur2='1.9360000000e+03'>
   4    1   6.7565396236e+02   4.4000000000e+01  -1.0000000000e+00   1.3366244227e-01
      11 -1  0  0    0    0   0.0000000000e+00   0.0000000000e+00   2.2000000000e+01   2.2000000000e+01   0.0000000000e+00  0  9
     -11 -1  0  0    0    0  -0.0000000000e+00  -0.0000000000e+00  -2.2000000000e+01   2.2000000000e+01   0.0000000000e+00  0  9
       4  1  1  2    0    0  -7.0903396360e+00   2.0653686883e+01  -2.6743788069e+00   2.2000000000e+01   0.0000000000e+00  0  9
      -4  1  1  2    0    0   7.0903396360e+00  -2.0653686883e+01   2.6743788069e+00   2.2000000000e+01   0.0000000000e+00  0  9
</event>
<event trials='6' muf2='1.9360000000e+03' mur2='1.9360000000e+03'>
   4    1   6.7565396236e+02   4.4000000000e+01  -1.0000000000e+00   1.3366244227e-01
      11 -1  0  0    0    0   0.0000000000e+00   0.0000000000e+00   2.2000000000e+01   2.2000000000e+01   0.0000000000e+00  0  9
     -11 -1  0  0    0    0  -0.0000000000e+00  -0.0000000000e+00  -2.2000000000e+01   2.2000000000e+01   0.0000000000e+00  0  9
       2  1  1  2    0    0  -1.9022907753e+01   7.0029503040e+00  -8.5491325666e+00   2.2000000000e+01   0.0000000000e+00  0  9
      -2  1  1  2    0    0   1.9022907753e+01  -7.0029503040e+00   8.5491325666e+00   2.2000000000e+01   0.0000000000e+00  0  9
</event>
<event trials='2' muf2='1.9360000000e+03' mur2='1.9360000000e+03'>
   4    1   6.7565396236e+02   4.4000000000e+01  -1.0000000000e+00   1.3366244227e-01
      11 -1  0  0    0    0   0.0000000000e+00   0.0000000000e+00   2.2000000000e+01   2.2000000000e+01   0.0000000000e+00  0  9
     -11 -1  0  0    0    0  -0.0000000000e+00  -0.0000000000e+00  -2.2000000000e+01   2.2000000000e+01   0.0000000000e+00  0  9
       5  1  1  2    0    0   1.4269856508e+01   1.0780081032e+01  -1.2812534807e+01   2.2000000000e+01   0.0000000000e+00  0  9
      -5  1  1  2    0    0  -1.4269856508e+01  -1.0780081032e+01   1.2812534807e+01   2.2000000000e+01   0.0000000000e+00  0  9
</event>
<event trials='4' muf2='1.9360000000e+03' mur2='1.9360000000e+03'>
   4    1   6.7565396236e+02   4.4000000000e+01  -1.0000000000e+00   1.3366244227e-01
      11 -1  0  0    0    0   0.0000000000e+00   0.0000000000e+00   2.2000000000e+01   2.2000000000e+01   0.0000000000e+00  0  9
     -11 -1  0  0    0    0  -0.0000000000e+00  -0.0000000000e+00  -2.2000000000e+01   2.2000000000e+01   0.0000000000e+00  0  9
       2  1  1  2    0    0   1.9494611091e+01  -6.9533473525e+00  -7.4572849613e+00   2.2000000000e+01   0.0000000000e+00  0  9
      -2  1  1  2    0    0  -1.9494611091e+01   6.9533473525e+00   7.4572849613e+00   2.2000000000e+01   0.0000000000e+00  0  9
</event>
<event trials='3' muf2='1.9360000000e+03' mur2='1.4829096903e+01'>
   5    1   6.7565396236e+02   4.4000000000e+01  -1.0000000000e+00   2.3652787504e-01
      11 -1  0  0    0    0   0.0000000000e+00   0.0000000000e+00   2.2000000000e+01   2.2000000000e+01   0.0000000000e+00  0  9
     -11 -1  0  0    0    0  -0.0000000000e+00  -0.0000000000e+00  -2.2000000000e+01   2.2000000000e+01   0.0000000000e+00  0  9
      21  1  1  2    0    0  -9.0066166735e+00   6.5338250785e+00  -8.2960498076e+00   1.3879281555e+01   0.0000000000e+00  0  9
       4  1  1  2    0    0  -4.0551839103e+00   7.7266931420e+00  -7.7502680458e-01   8.7605348013e+00   0.0000000000e+00  0  9
      -4  1  1  2    0    0   1.3061800584e+01  -1.4260518220e+01   9.0710766122e+00   2.1360183644e+01   0.0000000000e+00  0  9
</event>
<event trials='1' muf2='1.9360000000e+03' mur2='2.7055114463e+01'>
   5    1   6.7565396236e+02   4.4000000000e+01  -1.0000000000e+00   2.1377199621e-01
      11 -1  0  0    0    0   0.0000000000e+00   0.0000000000e+00   2.2000000000e+01   2.2000000000e+01   0.0000000000e+00  0  9
     -11 -1  0  0    0    0  -0.0000000000e+00  -0.0000000000e+00  -2.2000000000e+01   2.2000000000e+01   0.0000000000e+00  0  9
      21  1  1  2    0    0  -2.4115670594e-01   4.5343354718e-01  -1.4310562843e+01   1.4319775397e+01   0.0000000000e+00  0  9
       4  1  1  2    0    0  -3.4161582094e-01  -6.9586908625e+00  -5.4645433172e+00   8.8544516236e+00   0.0000000000e+00  0  9
      -4  1  1  2    0    0   5.8277252688e-01   6.5052573153e+00   1.9775106160e+01   2.0825772980e+01   0.0000000000e+00  0  9
</event>
<event trials='2' muf2='1.9360000000e+03' mur2='1.5287318323e+01'>
   5    1   6.7565396236e+02   4.4000000000e+01  -1.0000000000e+00   2.3522133403e-01
      11 -1  0  0    0    0   0.0000000000e+00   0.0000000000e+00   2.2000000000e+01   2.2000000000e+01   0.0000000000e+00  0  9
     -11 -1  0  0    0    0  -0.0000000000e+00  -0.0000000000e+00  -2.2000000000e+01   2.2000000000e+01   0.0000000000e+00  0  9
      21  1  1  2    0    0   4.8101671907e+00  -7.3228438911e+00   3.1940304186e+00   9.3254266053e+00   0.0000000000e+00  0  9
       3  1  1  2    0    0  -2.3679027287e+00   1.5087830210e+01  -1.4288410006e+01   2.0914307167e+01   0.0000000000e+00  0  9
      -3  1  1  2    0    0  -2.4422644620e+00  -7.7649863189e+00   1.1094379587e+01   1.3760266228e+01   0.0000000000e+00  0  9
</event>
<event trials='3' muf2='1.9360000000e+03' mur2='8.8902266674e+00'>
   5    1   6.7565396236e+02   4.4000000000e+01  -1.0000000000e+00   2.6121638464e-01
      11 -1  0  0    0    0   0.0000000000e+00   0.0000000000e+00   2.2000000000e+01   2.2000000000e+01   0.0000000000e+00  0  9
     -11 -1  0  0    0    0  -0.0000000000e+00  -0.0000000000e+00  -2.2000000000e+01   2.2000000000e+01   0.0000000000e+00  0  9
      21  1  1  2    0    0  -1.5086898255e-01  -7.4755970135e+00   4.9048680366e-01   7.4931895387e+00   0.0000000000e+00  0  9
       2  1  1  2    0    0  -3.6550186940e+00  -1.1017991593e+01  -1.0040219153e+01   1.5348006419e+01   0.0000000000e+00  0  9
      -2  1  1  2    0    0   3.8058876766e+00   1.8493588607e+01   9.5497323493e+00   2.1158804042e+01   0.0000000000e+00  0  9
</event>
<event trials='2' muf2='1.9360000000e+03' mur2='1.9360000000e+03'>
   4    1   6.7565396236e+02   4.4000000000e+01  -1.0000000000e+00   1.3366244227e-01
      11 -1  0  0    0    0   0.0000000000e+00   0.0000000000e+00   2.2000000000e+01   2.2000000000e+01   0.0000000000e+00  0  9
     -11 -1  0  0    0    0  -0.0000000000e+00  -0.0000000000e+00  -2.2000000000e+01   2.2000000000e+01   0.0000000000e+00  0  9
       2  1  1  2    0    0   1.2788593193e+01  -9.8347077327e+00   1.4957620398e+01   2.2000000000e+01   0.0000000000e+00  0  9
      -2  1  1  2    0    0  -1.2788593193e+01   9.8347077327e+00  -1.4957620398e+01   2.2000000000e+01   0.0000000000e+00  0  9
</event>
<event trials='6' muf2='1.9360000000e+03' mur2='3.3060228853e+01'>
   5    1   6.7565396236e+02   4.4000000000e+01  -1.0000000000e+00   2.0777606240e-01
      11 -1  0  0    0    0   0.0000000000e+00   0.0000000000e+00   2.2000000000e+01   2.2000000000e+01   0.0000000000e+00  0  9
     -11 -1  0  0    0    0  -0.0000000000e+00  -0.0000000000e+00  -2.2000000000e+01   2.2000000000e+01   0.0000000000e+00  0  9
      21  1  1  2    0    0   4.6363657295e+00   3.2452054142e+00   6.6431965334e+00   8.7269299034e+00   0.0000000000e+00  0  9
       2  1  1  2    0    0  -1.8345775722e+01  -3.8576499223e+00   2.3083138866e+00   1.8888548455e+01   0.0000000000e+00  0  9
      -2  1  1  2    0    0   1.3709409992e+01   6.1244450808e-01  -8.9515104199e+00   1.6384521641e+01   0.0000000000e+00  0  9
</event>
<event trials='2' muf2='1.9360000000e+03' mur2='4.7251777962e+01'>
   5    1   6.7565396236e+02   4.4000000000e+01  -1.0000000000e+00   1.9793365168e-01
      11 -1  0  0    0    0  -0.0000000000e+00  -0.0000000000e+00   2.2000000000e+01   2.2000000000e+01   0.0000000000e+00  0  9
     -11 -1  0  0    0    0   0.0000000000e+00   0.0000000000e+00  -2.2000000000e+01   2.2000000000e+01   0.0000000000e+00  0  9
      21  1  1  2    0    0  -1.7356989508e+00  -9.5674950926e+00  -7.3480892382e+00   1.2187863990e+01   0.0000000000e+00  0  9
       2  1  1  2    0    0   4.6372496684e-01   5.1075501854e+00  -1.1399175073e+01   1.2499732080e+01   0.0000000000e+00  0  9
      -2  1  1  2    0    0   1.2719739840e+00   4.4599449073e+00   1.8747264311e+01   1.9312403929e+01   0.0000000000e+00  0  9
</event>
<event trials='7' muf2='1.9360000000e+03' mur2='1.9360000000e+03'>
   4    1   6.7565396236e+02   4.4000000000e+01  -1.0000000000e+00   1.3366244227e-01
      11 -1  0  0    0    0   0.0000000000e+00   0.0000000000e+00   2.2000000000e+01   2.2000000000e+01   0.0000000000e+00  0  9
     -11 -1  0  0    0    0  -0.0000000000e+00  -0.0000000000e+00  -2.2000000000e+01   2.2000000000e+01   0.0000000000e+00  0  9
       2  1  1  2    0    0   5.3935857666e+00  -1.7546111800e+01  -1.2126136782e+01   2.2000000000e+01   0.0000000000e+00  0  9
      -2  1  1  2    0    0  -5.3935857666e+00   1.7546111800e+01   1.2126136782e+01   2.2000000000e+01   0.0000000000e+00  0  9
</event>
<event trials='1' muf2='1.9360000000e+03' mur2='1.9360000000e+03'>
   4    1   6.7565396236e+02   4.4000000000e+01  -1.0000000000e+00   1.3366244227e-01
      11 -1  0  0    0    0   0.0000000000e+00   0.0000000000e+00   2.2000000000e+01   2.2000000000e+01   0.0000000000e+00  0  9
     -11 -1  0  0    0    0  -0.0000000000e+00  -0.0000000000e+00  -2.2000000000e+01   2.2000000000e+01   0.0000000000e+00  0  9
       4  1  1  2    0    0  -1.2724984212e+01   1.3624715298e+01   1.1680835153e+01   2.2000000000e+01   0.0000000000e+00  0  9
      -4  1  1  2    0    0   1.2724984212e+01  -1.3624715298e+01  -1.1680835153e+01   2.2000000000e+01   0.0000000000e+00  0  9
</event>
<event trials='5' muf2='1.9360000000e+03' mur2='1.9360000000e+03'>
   4    1   6.7565396236e+02   4.4000000000e+01  -1.0000000000e+00   1.3366244227e-01
      11 -1  0  0    0    0  -0.0000000000e+00  -0.0000000000e+00   2.2000000000e+01   2.2000000000e+01   0.0000000000e+00  0  9
     -11 -1  0  0    0    0   0.0000000000e+00   0.0000000000e+00  -2.2000000000e+01   2.2000000000e+01   0.0000000000e+00  0  9
       2  1  1  2    0    0   1.5301647469e+01   1.4999309330e+01   4.9880160749e+00   2.2000000000e+01   0.0000000000e+00  0  9
      -2  1  1  2    0    0  -1.5301647469e+01  -1.4999309330e+01  -4.9880160749e+00   2.2000000000e+01   0.0000000000e+00  0  9
</event>
<event trials='2' muf2='1.9360000000e+03' mur2='1.9360000000e+03'>
   4    1   6.7565396236e+02   4.4000000000e+01  -1.0000000000e+00   1.3366244227e-01
      11 -1  0  0    0    0  -0.0000000000e+00  -0.0000000000e+00   2.2000000000e+01   2.2000000000e+01   0.0000000000e+00  0  9
     -11 -1  0  0    0    0   0.0000000000e+00   0.0000000000e+00  -2.2000000000e+01   2.2000000000e+01   0.0000000000e+00  0  9
       4  1  1  2    0    0  -2.1675586812e+01   2.3676755080e+00   2.9262687911e+00   2.2000000000e+01   0.0000000000e+00  0  9
      -4  1  1  2    0    0   2.1675586812e+01  -2.3676755080e+00  -2.9262687911e+00   2.2000000000e+01   0.0000000000e+00  0  9
</event>
<event trials='2' muf2='1.9360000000e+03' mur2='1.9360000000e+03'>
   4    1   6.7565396236e+02   4.4000000000e+01  -1.0000000000e+00   1.3366244227e-01
      11 -1  0  0    0    0   0.0000000000e+00   0.0000000000e+00   2.2000000000e+01   2.2000000000e+01   0.0000000000e+00  0  9
     -11 -1  0  0    0    0  -0.0000000000e+00  -0.0000000000e+00  -2.2000000000e+01   2.2000000000e+01   0.0000000000e+00  0  9
       2  1  1  2    0    0   7.3220315089e+00   1.9108568235e+01  -8.0777765861e+00   2.2000000000e+01   0.0000000000e+00  0  9
      -2  1  1  2    0    0  -7.3220315089e+00  -1.9108568235e+01   8.0777765861e+00   2.2000000000e+01   0.0000000000e+00  0  9
</event>
<event trials='2' muf2='1.9360000000e+03' mur2='1.9360000000e+03'>
   4    1   6.7565396236e+02   4.4000000000e+01  -1.0000000000e+00   1.3366244227e-01
      11 -1  0  0    0    0   0.0000000000e+00   0.0000000000e+00   2.2000000000e+01   2.2000000000e+01   0.0000000000e+00  0  9
     -11 -1  0  0    0    0  -0.0000000000e+00  -0.0000000000e+00  -2.2000000000e+01   2.2000000000e+01   0.0000000000e+00  0  9
       4  1  1  2    0    0  -1.4361592872e+00  -2.3426447968e+00  -2.1827722324e+01   2.2000000000e+01   0.0000000000e+00  0  9
      -4  1  1  2    0    0   1.4361592872e+00   2.3426447968e+00   2.1827722324e+01   2.2000000000e+01   0.0000000000e+00  0  9
</event>
<event trials='1' muf2='1.9360000000e+03' mur2='1.9360000000e+03'>
   4    1   6.7565396236e+02   4.4000000000e+01  -1.0000000000e+00   1.3366244227e-01
      11 -1  0  0    0    0   0.0000000000e+00   0.0000000000e+00   2.2000000000e+01   2.2000000000e+01   0.0000000000e+00  0  9
     -11 -1  0  0    0    0  -0.0000000000e+00  -0.0000000000e+00  -2.2000000000e+01   2.2000000000e+01   0.0000000000e+00  0  9
       1  1  1  2    0    0  -1.7417933849e+01  -1.1454579435e+01  -7.0290959868e+00   2.2000000000e+01   0.0000000000e+00  0  9
      -1  1  1  2    0    0   1.7417933849e+01   1.1454579435e+01   7.0290959868e+00   2.2000000000e+01   0.0000000000e+00  0  9
</event>
<event trials='10' muf2='1.9360000000e+03' mur2='1.9360000000e+03'>
   4    1   6.7565396236e+02   4.4000000000e+01  -1.0000000000e+00   1.3366244227e-01
      11 -1  0  0    0    0   0.0000000000e+00   0.0000000000e+00   2.2000000000e+01   2.2000000000e+01   0.0000000000e+00  0  9
     -11 -1  0  0    0    0  -0.0000000000e+00  -0.0000000000e+00  -2.2000000000e+01   2.2000000000e+01   0.0000000000e+00  0  9
       5  1  1  2    0    0  -1.5390468469e+00   1.7302111939e+01   1.3500676177e+01   2.2000000000e+01   0.0000000000e+00  0  9
      -5  1  1  2    0    0   1.5390468469e+00  -1.7302111939e+01  -1.3500676177e+01   2.2000000000e+01   0.0000000000e+00  0  9
</event>
<event trials='3' muf2='1.9360000000e+03' mur2='1.9360000000e+03'>
   4    1   6.7565396236e+02   4.4000000000e+01  -1.0000000000e+00   1.3366244227e-01
      11 -1  0  0    0    0   0.0000000000e+00   0.0000000000e+00   2.2000000000e+01   2.2000000000e+01   0.0000000000e+00  0  9
     -11 -1  0  0    0    0  -0.0000000000e+00  -0.0000000000e+00  -2.2000000000e+01   2.2000000000e+01   0.0000000000e+00  0  9
       1  1  1  2    0    0  -9.3811225173e+00   7.6715753243e+00  -1.8361412592e+01   2.2000000000e+01   0.0000000000e+00  0  9
      -1  1  1  2    0    0   9.3811225173e+00  -7.6715753243e+00   1.8361412592e+01   2.2000000000e+01   0.0000000000e+00  0  9
</event>
<event trials='2' muf2='1.9360000000e+03' mur2='1.9360000000e+03'>
   4    1   6.7565396236e+02   4.4000000000e+01  -1.0000000000e+00   1.3366244227e-01
      11 -1  0  0    0    0   0.0000000000e+00   0.0000000000e+00   2.2000000000e+01   2.2000000000e+01   0.0000000000e+00  0  9
     -11 -1  0  0    0    0  -0.0000000000e+00  -0.0000000000e+00  -2.2000000000e+01   2.2000000000e+01   0.0000000000e+00  0  9
       5  1  1  2    0    0   4.9071893613e+00   1.3970962256e+01  -1.6270577931e+01   2.2000000000e+01   0.0000000000e+00  0  9
      -5  1  1  2    0    0  -4.9071893613e+00  -1.3970962256e+01   1.6270577931e+01   2.2000000000e+01   0.0000000000e+00  0  9
</event>
<event trials='1' muf2='1.9360000000e+03' mur2='1.9360000000e+03'>
   4    1   6.7565396236e+02   4.4000000000e+01  -1.0000000000e+00   1.3366244227e-01
      11 -1  0  0    0    0   0.0000000000e+00   0.0000000000e+00   2.2000000000e+01   2.2000000000e+01   0.0000000000e+00  0  9
     -11 -1  0  0    0    0  -0.0000000000e+00  -0.0000000000e+00  -2.2000000000e+01   2.2000000000e+01   0.0000000000e+00  0  9
       5  1  1  2    0    0  -5.8057998580e+00  -1.8907451453e+01  -9.6333258826e+00   2.2000000000e+01   0.0000000000e+00  0  9
      -5  1  1  2    0    0   5.8057998580e+00   1.8907451453e+01   9.6333258826e+00   2.2000000000e+01   0.0000000000e+00  0  9
</event>
<event trials='4' muf2='1.9360000000e+03' mur2='1.9360000000e+03'>
   4    1   6.7565396236e+02   4.4000000000e+01  -1.0000000000e+00   1.3366244227e-01
      11 -1  0  0    0    0   0.0000000000e+00   0.0000000000e+00   2.2000000000e+01   2.2000000000e+01   0.0000000000e+00  0  9
     -11 -1  0  0    0    0  -0.0000000000e+00  -0.0000000000e+00  -2.2000000000e+01   2.2000000000e+01   0.0000000000e+00  0  9
       4  1  1  2    0    0   2.1159447689e+01  -2.1401762949e+00  -5.6300460856e+00   2.2000000000e+01   0.0000000000e+00  0  9
      -4  1  1  2    0    0  -2.1159447689e+01   2.1401762949e+00   5.6300460856e+00   2.2000000000e+01   0.0000000000e+00  0  9
</event>
<event trials='5' muf2='1.9360000000e+03' mur2='1.9360000000e+03'>
   4    1   6.7565396236e+02   4.4000000000e+01  -1.0000000000e+00   1.3366244227e-01
      11 -1  0  0    0    0   0.0000000000e+00   0.0000000000e+00   2.2000000000e+01   2.2000000000e+01   0.0000000000e+00  0  9
     -11 -1  0  0    0    0  -0.0000000000e+00  -0.0000000000e+00  -2.2000000000e+01   2.2000000000e+01   0.0000000000e+00  0  9
       2  1  1  2    0    0   6.4110488388e+00   1.9813697706e+01   7.0933656341e+00   2.2000000000e+01   0.0000000000e+00  0  9
      -2  1  1  2    0    0  -6.4110488388e+00  -1.9813697706e+01  -7.0933656341e+00   2.2000000000e+01   0.0000000000e+00  0  9
</event>
<event trials='1' muf2='1.9360000000e+03' mur2='1.9360000000e+03'>
   4    1   6.7565396236e+02   4.4000000000e+01  -1.0000000000e+00   1.3366244227e-01
      11 -1  0  0    0    0   0.0000000000e+00   0.0000000000e+00   2.2000000000e+01   2.2000000000e+01   0.0000000000e+00  0  9
     -11 -1  0  0    0    0  -0.0000000000e+00  -0.0000000000e+00  -2.2000000000e+01   2.2000000000e+01   0.0000000000e+00  0  9
       4  1  1  2    0    0  -1.0050788542e+01  -9.6495245465e+00  -1.7025519837e+01   2.2000000000e+01   0.0000000000e+00  0  9
      -4  1  1  2    0    0   1.0050788542e+01   9.6495245465e+00   1.7025519837e+01   2.2000000000e+01   0.0000000000e+00  0  9
</event>
<event trials='4' muf2='1.9360000000e+03' mur2='1.9360000000e+03'>
   4    1   6.7565396236e+02   4.4000000000e+01  -1.0000000000e+00   1.3366244227e-01
      11 -1  0  0    0    0   0.0000000000e+00   0.0000000000e+00   2.2000000000e+01   2.2000000000e+01   0.0000000000e+00  0  9
     -11 -1  0  0    0    0  -0.0000000000e+00  -0.0000000000e+00  -2.2000000000e+01   2.2000000000e+01   0.0000000000e+00  0  9
       5  1  1  2    0    0   9.0526600772e+00   8.2226999523e-01  -2.0034301026e+01   2.2000000000e+01   0.0000000000e+00  0  9
      -5  1  1  2    0    0  -9.0526600772e+00  -8.2226999523e-01   2.0034301026e+01   2.2000000000e+01   0.0000000000e+00  0  9
</event>
<event trials='2' muf2='1.9360000000e+03' mur2='1.9360000000e+03'>
   4    1   6.7565396236e+02   4.4000000000e+01  -1.0000000000e+00   1.3366244227e-01
      11 -1  0  0    0    0   0.0000000000e+00   0.0000000000e+00   2.2000000000e+01   2.2000000000e+01   0.0000000000e+00  0  9
     -11 -1  0  0    0    0  -0.0000000000e+00  -0.0000000000e+00  -2.2000000000e+01   2.2000000000e+01   0.0000000000e+00  0  9
       2  1  1  2    0    0   1.0686933299e+01  -1.1347444250e+01   1.5524978765e+01   2.2000000000e+01   0.0000000000e+00  0  9
      -2  1  1  2    0    0  -1.0686933299e+01   1.1347444250e+01  -1.5524978765e+01   2.2000000000e+01   0.0000000000e+00  0  9
</event>
<event trials='6' muf2='1.9360000000e+03' mur2='1.9360000000e+03'>
   4    1   6.7565396236e+02   4.4000000000e+01  -1.0000000000e+00   1.3366244227e-01
      11 -1  0  0    0    0  -0.0000000000e+00  -0.0000000000e+00   2.2000000000e+01   2.2000000000e+01   0.0000000000e+00  0  9
     -11 -1  0  0    0    0   0.0000000000e+00   0.0000000000e+00  -2.2000000000e+01   2.2000000000e+01   0.0000000000e+00  0  9
       4  1  1  2    0    0  -1.0495222235e+01   5.6970270448e+00  -1.8476855606e+01   2.2000000000e+01   0.0000000000e+00  0  9
      -4  1  1  2    0    0   1.0495222235e+01  -5.6970270448e+00   1.8476855606e+01   2.2000000000e+01   0.0000000000e+00  0  9
</event>
<event trials='3' muf2='1.9360000000e+03' mur2='1.9360000000e+03'>
   4    1   6.7565396236e+02   4.4000000000e+01  -1.0000000000e+00   1.3366244227e-01
      11 -1  0  0    0    0   0.0000000000e+00   0.0000000000e+00   2.2000000000e+01   2.2000000000e+01   0.0000000000e+00  0  9
     -11 -1  0  0    0    0  -0.0000000000e+00  -0.0000000000e+00  -2.2000000000e+01   2.2000000000e+01   0.0000000000e+00  0  9
       4  1  1  2    0    0  -1.8378629185e+01   1.1867010748e+01  -2.3237997343e+00   2.2000000000e+01   0.0000000000e+00  0  9
      -4  1  1  2    0    0   1.8378629185e+01  -1.1867010748e+01   2.3237997343e+00   2.2000000000e+01   0.0000000000e+00  0  9
</event>
<event trials='9' muf2='1.9360000000e+03' mur2='1.9360000000e+03'>
   4    1   6.7565396236e+02   4.4000000000e+01  -1.0000000000e+00   1.3366244227e-01
      11 -1  0  0    0    0   0.0000000000e+00   0.0000000000e+00   2.2000000000e+01   2.2000000000e+01   0.0000000000e+00  0  9
     -11 -1  0  0    0    0  -0.0000000000e+00  -0.0000000000e+00  -2.2000000000e+01   2.2000000000e+01   0.0000000000e+00  0  9
       1  1  1  2    0    0  -1.3842156320e+01  -1.6515488212e+01  -4.4309544706e+00   2.2000000000e+01   0.0000000000e+00  0  9
      -1  1  1  2    0    0   1.3842156320e+01   1.6515488212e+01   4.4309544706e+00   2.2000000000e+01   0.0000000000e+00  0  9
</event>
<event trials='1' muf2='1.9360000000e+03' mur2='7.6933977268e+00'>
   5    1   6.7565396236e+02   4.4000000000e+01  -1.0000000000e+00   2.6929074418e-01
      11 -1  0  0    0    0   0.0000000000e+00   0.0000000000e+00   2.2000000000e+01   2.2000000000e+01   0.0000000000e+00  0  9
     -11 -1  0  0    0    0  -0.0000000000e+00  -0.0000000000e+00  -2.2000000000e+01   2.2000000000e+01   0.0000000000e+00  0  9
      21  1  1  2    0    0   2.3355921484e+00  -3.4996633939e+00  -1.1057895154e+00   4.3503338961e+00   0.0000000000e+00  0  9
       1  1  1  2    0    0  -1.4538875071e+01  -6.9639097858e+00   1.2115501838e+01   2.0165820405e+01   0.0000000000e+00  0  9
      -1  1  1  2    0    0   1.2203282923e+01   1.0463573180e+01  -1.1009712322e+01   1.9483845699e+01   0.0000000000e+00  0  9
</event>
<event trials='1' muf2='1.9360000000e+03' mur2='1.9360000000e+03'>
   4    1   6.7565396236e+02   4.4000000000e+01  -1.0000000000e+00   1.3366244227e-01
      11 -1  0  0    0    0   0.0000000000e+00   0.0000000000e+00   2.2000000000e+01   2.2000000000e+01   0.0000000000e+00  0  9
     -11 -1  0  0    0    0  -0.0000000000e+00  -0.0000000000e+00  -2.2000000000e+01   2.2000000000e+01   0.0000000000e+00  0  9
       5  1  1  2    0    0   5.5261595183e+00   1.1366334980e+01   1.8007442631e+01   2.2000000000e+01   0.0000000000e+00  0  9
      -5  1  1  2    0    0  -5.5261595183e+00  -1.1366334980e+01  -1.8007442631e+01   2.2000000000e+01   0.0000000000e+00  0  9
</event>
<event trials='1' muf2='1.9360000000e+03' mur2='1.4913561097e+01'>
   5    1   6.7565396236e+02   4.4000000000e+01  -1.0000000000e+00   2.3628280826e-01
      11 -1  0  0    0    0   0.0000000000e+00   0.0000000000e+00   2.2000000000e+01   2.2000000000e+01   0.0000000000e+00  0  9
     -11 -1  0  0    0    0  -0.0000000000e+00  -0.0000000000e+00  -2.2000000000e+01   2.2000000000e+01   0.0000000000e+00  0  9
      21  1  1  2    0    0  -1.8630445053e+00  -1.8990440811e+00   5.8629073922e+00   6.4382440417e+00   0.0000000000e+00  0  9
       2  1  1  2    0    0  -1.5357910149e+01   5.2939701716e+00   4.9056761380e+00   1.6969301185e+01   0.0000000000e+00  0  9
      -2  1  1  2    0    0   1.7220954654e+01  -3.3949260905e+00  -1.0768583530e+01   2.0592454774e+01   0.0000000000e+00  0  9
</event>
<event trials='1' muf2='1.9360000000e+03' mur2='6.0365581539e+01'>
   5    1   6.7565396236e+02   4.4000000000e+01  -1.0000000000e+00   1.9173553500e-01
      11 -1  0  0    0    0  -0.0000000000e+00  -0.0000000000e+00   2.2000000000e+01   2.2000000000e+01   0.0000000000e+00  0  9
     -11 -1  0  0    0    0   0.0000000000e+00   0.0000000000e+00  -2.2000000000e+01   2.2000000000e+01   0.0000000000e+00  0  9
      21  1  1  2    0    0  -4.8730720711e+00   6.6304370613e+00  -6.5551154090e+00   1.0520411829e+01   0.0000000000e+00  0  9
       4  1  1  2    0    0   1.7104368513e+01  -3.4568406760e+00  -2.9103985039e+00   1.7691229158e+01   0.0000000000e+00  0  9
      -4  1  1  2    0    0  -1.2231296442e+01  -3.1735963853e+00   9.4655139129e+00   1.5788359012e+01   0.0000000000e+00  0  9
</event>
<event trials='3' muf2='1.9360000000e+03' mur2='1.9360000000e+03'>
   4    1   6.7565396236e+02   4.4000000000e+01  -1.0000000000e+00   1.3366244227e-01
      11 -1  0  0    0    0  -0.0000000000e+00  -0.0000000000e+00   2.2000000000e+01   2.2000000000e+01   0.0000000000e+00  0  9
     -11 -1  0  0    0    0   0.0000000000e+00   0.0000000000e+00  -2.2000000000e+01   2.2000000000e+01   0.0000000000e+00  0  9
       4  1  1  2    0    0   1.3093384377e+01  -1.2405838855e+01  -1.2595969508e+01   2.2000000000e+01   0.0000000000e+00  0  9
      -4  1  1  2    0    0  -1.3093384377e+01   1.2405838855e+01   1.2595969508e+01   2.2000000000e+01   0.0000000000e+00  0  9
</event>
<event trials='3' muf2='1.9360000000e+03' mur2='1.9360000000e+03'>
   4    1   6.7565396236e+02   4.4000000000e+01  -1.0000000000e+00   1.3366244227e-01
      11 -1  0  0    0    0   0.0000000000e+00   0.0000000000e+00   2.2000000000e+01   2.2000000000e+01   0.0000000000e+00  0  9
     -11 -1  0  0    0    0  -0.0000000000e+00  -0.0000000000e+00  -2.2000000000e+01   2.2000000000e+01   0.0000000000e+00  0  9
       3  1  1  2    0    0  -2.1552276137e+01   3.7495164750e+00  -2.3324921230e+00   2.2000000000e+01   0.0000000000e+00  0  9
      -3  1  1  2    0    0   2.1552276137e+01  -3.7495164750e+00   2.3324921230e+00   2.2000000000e+01   0.0000000000e+00  0  9
</event>
<event trials='1' muf2='1.9360000000e+03' mur2='1.7498411624e+01'>
   5    1   6.7565396236e+02   4.4000000000e+01  -1.0000000000e+00   2.2960969158e-01
      11 -1  0  0    0    0   0.0000000000e+00   0.0000000000e+00   2.2000000000e+01   2.2000000000e+01   0.0000000000e+00  0  9
     -11 -1  0  0    0    0  -0.0000000000e+00  -0.0000000000e+00  -2.2000000000e+01   2.2000000000e+01   0.0000000000e+00  0  9
      21  1  1  2    0    0  -1.7580855086e+00  -7.1868338077e+00   5.2085697855e-01   7.4170571541e+00   0.0000000000e+00  0  9
       2  1  1  2    0    0   1.4131363827e+01   1.1026223117e+01   9.4242255956e+00   2.0250655987e+01   0.0000000000e+00  0  9
      -2  1  1  2    0    0  -1.2373278319e+01  -3.8393893094e+00  -9.9450825742e+00   1.6332286858e+01   0.0000000000e+00  0  9
</event>
<event trials='9' muf2='1.9360000000e+03' mur2='3.8084060218e+01'>
   5    1   6.7565396236e+02   4.4000000000e+01  -1.0000000000e+00   2.0375554904e-01
      11 -1  0  0    0    0  -0.0000000000e+00  -0.0000000000e+00   2.2000000000e+01   2.2000000000e+01   0.0000000000e+00  0  9
     -11 -1  0  0    0    0   0.0000000000e+00   0.0000000000e+00  -2.2000000000e+01   2.2000000000e+01   0.0000000000e+00  0  9
      21  1  1  2    0    0   7.5917562386e+00   5.1847057390e+00  -3.9779987476e+00   1.0017006061e+01   0.0000000000e+00  0  9
       2  1  1  2    0    0  -6.4123537727e+00  -1.7583225564e+01  -4.0714320454e+00   1.9153711417e+01   0.0000000000e+00  0  9
      -2  1  1  2    0    0  -1.1794024658e+00   1.2398519825e+01   8.0494307929e+00   1.4829282522e+01   0.0000000000e+00  0  9
</event>
<event trials='1' muf2='1.9360000000e+03' mur2='1.7891484133e+01'>
   5    1   6.7565396236e+02   4.4000000000e+01  -1.0000000000e+00   2.2871508909e-01
      11 -1  0  0    0    0   0.0000000000e+00   0.0000000000e+00   2.2000000000e+01   2.2000000000e+01   0.0000000000e+00  0  9
     -11 -1  0  0    0    0  -0.0000000000e+00  -0.0000000000e+00  -2.2000000000e+01   2.2000000000e+01   0.0000000000e+00  0  9
      21  1  1  2    0    0   6.1140452133e+00   1.0364069674e+00   1.2390532201e+00   6.3238391152e+00   0.0000000000e+00  0  9
       3  1  1  2    0    0   5.1051296160e+00   7.0813107221e+00  -1.5505500387e+01   1.7794039794e+01   0.0000000000e+00  0  9
      -3  1  1  2    0    0  -1.1219174829e+01  -8.1177176895e+00   1.4266447166e+01   1.9882121091e+01   0.0000000000e+00  0  9
</event>
<event trials='1' muf2='1.9360000000e+03' mur2='1.9097683358e+01'>
   5    1   6.7565396236e+02   4.4000000000e+01  -1.0000000000e+00   2.2613171233e-01
      11 -1  0  0    0    0  -0.0000000000e+00  -0.0000000000e+00   2.2000000000e+01   2.2000000000e+01   0.0000000000e+00  0  9
     -11 -1  0  0    0    0   0.0000000000e+00   0.0000000000e+00  -2.2000000000e+01   2.2000000000e+01   0.0000000000e+00  0  9
      21  1  1  2    0    0  -4.1240554557e+00   5.1184794708e+00   1.8267074449e+00   6.8222815527e+00   0.0000000000e+00  0  9
       2  1  1  2    0    0  -2.7995417980e+00  -1.2995785682e+01  -1.5193091489e+01   2.0188063522e+01   0.0000000000e+00  0  9
      -2  1  1  2    0    0   6.9235972537e+00   7.8773062111e+00   1.3366384044e+01   1.6989654925e+01   0.0000000000e+00  0  9
</event>
<event trials='6' muf2='1.9360000000e+03' mur2='1.7580068202e+01'>
   5    1   6.7565396236e+02   4.4000000000e+01  -1.0000000000e+00   2.2942156417e-01
      11 -1  0  0    0    0   0.0000000000e+00   0.0000000000e+00   2.2000000000e+01   2.2000000000e+01   0.0000000000e+00  0  9
     -11 -1  0  0    0    0  -0.0000000000e+00  -0.0000000000e+00  -2.2000000000e+01   2.2000000000e+01   0.0000000000e+00  0  9
      21  1  1  2    0    0   6.7484921754e+00  -1.9618636556e+00  -8.1009598464e-01   7.0744124243e+00   0.0000000000e+00  0  9
       2  1  1  2    0    0  -8.5308477248e+00   1.6809626107e+01  -6.9336844868e+00   2.0085190398e+01   0.0000000000e+00  0  9
      -2  1  1  2    0    0   1.7823555494e+00  -1.4847762451e+01   7.7437804714e+00   1.6840397178e+01   0.0000000000e+00  0  9
</event>
<event trials='1' muf2='1.9360000000e+03' mur2='4.7864664053e+01'>
   5    1   6.7565396236e+02   4.4000000000e+01  -1.0000000000e+00   1.9759695314e-01
      11 -1  0  0    0    0   0.0000000000e+00   0.0000000000e+00   2.2000000000e+01   2.2000000000e+01   0.0000000000e+00  0  9
     -11 -1  0  0    0    0  -0.0000000000e+00  -0.0000000000e+00  -2.2000000000e+01   2.2000000000e+01   0.0000000000e+00  0  9
      21  1  1  2    0    0   9.0766857951e+00  -2.1755426448e+00  -2.6547445125e+00   9.7039620387e+00   0.0000000000e+00  0  9
       4  1  1  2    0    0  -9.2032539310e-02   1.6841887275e+01  -2.9834088151e-01   1.6844780921e+01   0.0000000000e+00  0  9
      -4  1  1  2    0    0  -8.9846532558e+00  -1.4666344631e+01   2.9530853940e+00   1.7451257041e+01   0.0000000000e+00  0  9
</event>
<event trials='3' muf2='1.9360000000e+03' mur2='1.0813957396e+01'>
   5    1   6.7565396236e+02   4.4000000000e+01  -1.0000000000e+00   2.5110713389e-01
      11 -1  0  0    0    0   0.0000000000e+00   0.0000000000e+00   2.2000000000e+01   2.2000000000e+01   0.0000000000e+00  0  9
     -11 -1  0  0    0    0  -0.0000000000e+00  -0.0000000000e+00  -2.2000000000e+01   2.2000000000e+01   0.0000000000e+00  0  9
      21  1  1  2    0    0   4.0355976293e-01  -3.9538439872e+00   3.9973543917e+00   5.6368949689e+00   0.0000000000e+00  0  9
       4  1  1  2    0    0  -1.3912584390e+01  -2.6319217158e+00   1.0386363113e+01   1.7560283455e+01   0.0000000000e+00  0  9
      -4  1  1  2    0    0   1.3509024627e+01   6.5857657031e+00  -1.4383717505e+01   2.0802821576e+01   0.0000000000e+00  0  9
</event>
<event trials='2' muf2='1.9360000000e+03' mur2='1.9360000000e+03'>
   4    1   6.7565396236e+02   4.4000000000e+01  -1.0000000000e+00   1.3366244227e-01
      11 -1  0  0    0    0   0.0000000000e+00   0.0000000000e+00   2.2000000000e+01   2.2000000000e+01   0.0000000000e+00  0  9
     -11 -1  0  0    0    0  -0.0000000000e+00  -0.0000000000e+00  -2.2000000000e+01   2.2000000000e+01   0.0000000000e+00  0  9
       3  1  1  2    0    0  -1.6141328816e+01   1.2140413738e+01   8.7216889615e+00   2.2000000000e+01   0.0000000000e+00  0  9
      -3  1  1  2    0    0   1.6141328816e+01  -1.2140413738e+01  -8.7216889615e+00   2.2000000000e+01   0.0000000000e+00  0  9
</event>
</LesHouchesEvents>
