<LesHouchesEvents version="3.0">
<!--
file generated with POWHEG-BOX-V2
SVN status Begin
/var/tmp/portage/sci-physics/powheg-box-v2-directphoton-4027/work/powheg-box-v2-directphoton-4027/powheg-box-v2-directphoton-4027
no svn repository found
/var/tmp/portage/sci-physics/powheg-box-v2-directphoton-4027/work/powheg-box-v2-directphoton-4027
no svn repository found
SVN status End
Input file powheg.input contained:
numevts 100 ! number of events to be generated
ih1   1        ! hadron 1 (1 for protons, -1 for antiprotons)
ih2   1        ! hadron 2 (1 for protons, -1 for antiprotons)
ebeam1 6500d0  ! energy of beam 1
ebeam2 6500d0  ! energy of beam 2

! 303400 = NNPDF31_nlo_as_0118
! Remember: you can install pdfs like 'lhapdf install NNPDF31_nlo_as_0118'
! then 'lhapdf update'
lhans1 303400    ! Pdf set for hadron 1 (LHA numbering)
lhans2 303400    ! pdf set for hadron 2 (LHA numbering)

! for not equal pdf set QCDLambda5
! QCDLambda5 0.22616191135470262

! Parameters to allow or not the use of stored data
use-old-grid    1 ! if 1 use old grid if file pwggrids.dat is present (<> 1 regenerate)
use-old-ubound  1 ! if 1 use norm of upper bounding function stored in pwgubound.dat, if present; <>

ncall1 1000  ! number of calls for initializing the integration grid
itmx1    5     ! number of iterations for initializing the integration grid
ncall2 1000  ! number of calls for computing the integral and finding upper bound
itmx2    5     ! number of iterations for computing the integral and finding upper bound
foldcsi   2    ! number of folds on csi integration
foldy     5    ! number of folds on  y  integration
foldphi   1    ! number of folds on phi integration
nubound 5000 ! number of bbarra calls to setup norm of upper bounding function
icsimax  1     ! <= 100, number of csi subdivision when computing the upper bounds
iymax    5     ! <= 100, number of y subdivision when computing the upper bounds
xupbound 2d0   ! increase upper bound for radiation generation

bornktmin 10
bornsuppfact 4000 ! needed to get photons over a wide range of 100 GeV to over 1 TeV (ATLAS range),

alphaem_inv  137.0359895  ! 1/alphaem

renscfact  1.0d0   ! (default 1d0) ren scale factor: muren  = muref * renscfact
facscfact  1.0d0   ! (default 1d0) fac scale factor: mufact = muref * facscfact

#bornonly    1   ! (default 0) if 1 do Born only
#novirtual   1   ! ignore virtuals
#flg_debug   1
emvirtual    1   ! compute soft-virtual QED terms (integrated subtractions)

doublefsr  1  ! redefinition of emitter and emitted, recommended by powheg authors
iupperfsr  1  ! version of upperbounding, 2 ill-defined for massless process

manyseeds  1     ! use pwgseeds.dat for random number input
parallelstage 4
xgriditeration 1 ! which grid iteration in stage 1

! for artificially enhanced statistics. If applied, don't forget to multiply the regular weight with
enhancedradfac 50 ! if > 0 then the splitting kernel used for photon radiation is multiplied by this
#lhrwgt_id 'central'  ! lhrwgt_ reweighting does not work with this version of the code
#lhrwgt_descr 'Central weight, photon splitting enhanced by factor 50' ! lhrwgt_ reweighting does no
rwl_file '-'
End of powheg.input content
PDF package: lha
 Random number generator initialized with:        28582             0             0
-->
<header>
<initrwgt>
<weightgroup name='nominal' combine='None' >
<weight id='0' >default</weight>
</weightgroup>
<weightgroup name='scale_variations' combine='None' >
<weight id='1' > renscfact=2d0 facscfact=2d0 </weight>
<weight id='2' > renscfact=0.5d0 facscfact=0.5d0 </weight>
<weight id='3' > renscfact=1d0 facscfact=2d0 </weight>
<weight id='4' > renscfact=1d0 facscfact=0.5d0 </weight>
<weight id='5' > renscfact=2d0 facscfact=1d0 </weight>
<weight id='6' > renscfact=0.5d0 facscfact=1d0 </weight>
</weightgroup>
</initrwgt>
</header>
<init>
     2212     2212  6.50000E+03  6.50000E+03     -1     -1     -1     -1     -4      1
 -1.00000E+00 -1.00000E+00  1.00000E+00  10001
</init>
<event>
      5  10001  2.00918E+00  1.28535E+03  7.29735E-03  8.84483E-02
       2    -1     0     0   512     0  0.000000000E+00  0.000000000E+00  3.037697121E+03  3.037697121E+03  0.000000000E+00  0.00000E+00  9.000E+00
       2    -1     0     0   511     0  0.000000000E+00  0.000000000E+00 -1.685637424E+03  1.685637424E+03  0.000000000E+00  0.00000E+00  9.000E+00
       2     1     1     2   511     0 -1.620765303E+03 -7.002716565E+02  1.509071423E+03  2.322618591E+03  3.051757812E-05  0.00000E+00  9.000E+00
       2     1     1     2   512     0  1.480050124E+03  5.051628435E+02  5.469620382E+02  1.656775585E+03  3.578503235E-05  0.00000E+00  9.000E+00
      22     1     1     2     0     0  1.407151787E+02  1.951088130E+02 -7.039737647E+02  7.439403684E+02  1.705984480E-05  0.00000E+00  9.000E+00
#rwgt            1          97   3.1447523227350588E-002       28582          27           0
<weights>
0.25905E-02
0.20109E-02
0.33983E-02
0.23034E-02
0.29366E-02
0.22616E-02
0.29978E-02
</weights>
<scales uborns=' 0.202472679E+04'> </scales>
</event>
<event>
      5  10001  1.82889E+02  7.61191E+01  7.29735E-03  1.29403E-01
      21    -1     0     0   511   514  0.000000000E+00  0.000000000E+00  1.065408529E+03  1.065408529E+03  0.000000000E+00  0.00000E+00  9.000E+00
       4    -1     0     0   514     0  0.000000000E+00  0.000000000E+00 -2.062831702E+03  2.062831702E+03  0.000000000E+00  0.00000E+00  9.000E+00
      22     1     1     2     0     0 -2.429171159E+01 -1.479064239E+02 -3.308690431E+02  3.632364535E+02  8.529922400E-06  0.00000E+00  9.000E+00
      21     1     1     2   511   513  1.789790552E+02  8.530256801E+02  7.663088470E+02  1.160566914E+03  3.737624730E-05  0.00000E+00  9.000E+00
       4     1     1     2   513     0 -1.546873436E+02 -7.051192561E+02 -1.432862976E+03  1.604436863E+03  1.525878906E-05  0.00000E+00  9.000E+00
#rwgt            1         189   1.9534753400371707E-004       28582         360           0
<weights>
0.27807E+02
0.21440E+02
0.36722E+02
0.24871E+02
0.31266E+02
0.23971E+02
0.32660E+02
</weights>
<scales uborns=' 0.202472679E+04'> </scales>
</event>
<event>
      5  10001  3.41256E+05  3.24374E+00  7.29735E-03  2.86939E-01
       1    -1     0     0   513     0  0.000000000E+00  0.000000000E+00  4.870345645E+01  4.870345645E+01  0.000000000E+00  0.00000E+00  9.000E+00
      21    -1     0     0   512   515  0.000000000E+00  0.000000000E+00 -1.410444855E+03  1.410444855E+03  0.000000000E+00  0.00000E+00  9.000E+00
       1     1     1     2   512     0  2.116203508E+02 -1.165744607E+02 -9.537137928E+02  9.838408288E+02  1.868812365E-05  0.00000E+00  9.000E+00
      21     1     1     2   513   515 -2.126854204E+02  1.156432057E+02 -4.070022548E+02  4.735602121E+02  7.629394531E-06  0.00000E+00  9.000E+00
      22     1     1     2     0     0  1.065069600E+00  9.312550179E-01 -1.025350471E+00  1.747270085E+00  2.580956828E-08  0.00000E+00  9.000E+00
#rwgt            1         181   1.3212748051595678E-004       28582         779           0
<weights>
0.93077E+04
0.73218E+04
0.12065E+05
0.87052E+04
0.99741E+04
0.78286E+04
0.11259E+05
</weights>
<scales uborns=' 0.202472679E+04'> </scales>
</event>
<event>
      5  10001  4.18247E+01  5.26222E+01  7.29735E-03  1.37820E-01
      -2    -1     0     0     0   501  0.000000000E+00  0.000000000E+00  1.674697509E+03  1.674697509E+03  0.000000000E+00  0.00000E+00  9.000E+00
       2    -1     0     0   502     0  0.000000000E+00  0.000000000E+00 -1.426187564E+03  1.426187564E+03  0.000000000E+00  0.00000E+00  9.000E+00
      22     1     1     2     0     0  3.972683807E+02  1.059543560E+03 -9.310317175E+02  1.465358243E+03  2.157918644E-05  0.00000E+00  9.000E+00
       5     1     1     2   502     0 -2.195739120E+02 -5.836452523E+02  6.094232255E+02  8.719238219E+02  2.157918644E-05  0.00000E+00  9.000E+00
      -5     1     1     2     0   501 -1.776944687E+02 -4.758983073E+02  5.701184371E+02  7.636030090E+02  1.525878906E-05  0.00000E+00  9.000E+00
#rwgt            1           7   2.8295859719383431E-006       28582        1002           0
<weights>
0.41825E+02
0.39372E+02
0.48849E+02
0.40605E+02
0.43271E+02
0.40902E+02
0.47343E+02
</weights>
<scales uborns=' 0.202472679E+04'> </scales>
</event>
<event>
      5  10001  4.80896E+01  2.98968E+02  7.29735E-03  1.05641E-01
       2    -1     0     0   511     0  0.000000000E+00  0.000000000E+00  1.021253592E+03  1.021253592E+03  0.000000000E+00  0.00000E+00  9.000E+00
       2    -1     0     0   512     0  0.000000000E+00  0.000000000E+00 -1.897982939E+03  1.897982939E+03  0.000000000E+00  0.00000E+00  9.000E+00
       2     1     1     2   511     0 -4.534794312E+02  1.000211873E+03 -1.320919759E+03  1.717817335E+03  1.525878906E-05  0.00000E+00  9.000E+00
      22     1     1     2     0     0  5.147301154E+01 -3.327616796E+02  1.489556429E+02  3.681950432E+02  5.046370146E-06  0.00000E+00  9.000E+00
       2     1     1     2   512     0  4.020064197E+02 -6.674501930E+02  2.952347691E+02  8.332241538E+02  1.078959322E-05  0.00000E+00  9.000E+00
#rwgt            1          97   3.3791101773589633E-003       28582        1065           0
<weights>
0.62850E+00
0.50211E+00
0.80006E+00
0.58026E+00
0.68422E+00
0.54384E+00
0.73490E+00
</weights>
<scales uborns=' 0.110391125E+04'> </scales>
</event>
<event>
      5  10001  9.46634E+02  9.48964E+01  7.29735E-03  1.24860E-01
       1    -1     0     0   513     0  0.000000000E+00  0.000000000E+00  2.113879247E+03  2.113879247E+03  0.000000000E+00  0.00000E+00  9.000E+00
      -2    -1     0     0     0   513  0.000000000E+00  0.000000000E+00 -3.574895961E+02  3.574895961E+02  0.000000000E+00  0.00000E+00  9.000E+00
       1     1     1     2   512     0  2.803414332E+02 -6.427274789E+02  1.593642839E+03  1.741088002E+03  2.157918644E-05  0.00000E+00  9.000E+00
      -2     1     1     2     0   512 -2.766708550E+02  5.479021253E+02  1.641831729E+02  6.353736028E+02  1.044697871E-05  0.00000E+00  9.000E+00
      22     1     1     2     0     0 -3.670578244E+00  9.482535365E+01 -1.436360825E+00  9.490723877E+01  7.921477473E-07  0.00000E+00  9.000E+00
#rwgt            1         141   2.2387982157811824E-004       28582        2043           0
<weights>
0.19555E+02
0.15471E+02
0.25160E+02
0.18034E+02
0.21300E+02
0.16776E+02
0.23100E+02
</weights>
<scales uborns=' 0.656257482E+03'> </scales>
</event>
<event>
      4  10001  1.00406E+01  8.94427E-01  7.29735E-03  7.48905E-01
      21    -1     0     0   511   514  0.000000000E+00  0.000000000E+00  2.900251850E+03  2.900251850E+03  0.000000000E+00  0.00000E+00  9.000E+00
       1    -1     0     0   512     0  0.000000000E+00  0.000000000E+00 -1.082181338E+03  1.082181338E+03  0.000000000E+00  0.00000E+00  9.000E+00
       1     1     1     2   511     0  1.400299694E+03 -4.544083456E+02 -1.986620948E+02  1.485527787E+03  3.134093614E-05  0.00000E+00  9.000E+00
      21     1     1     2   512   514 -1.400299694E+03  4.544083456E+02  2.016732607E+03  2.496905401E+03  3.051757812E-05  0.00000E+00  9.000E+00
#rwgt            1         186   6.3818670432708581E-004       28582        2134           0
<weights>
0.43908E+02
0.31826E+02
0.62275E+02
0.36620E+02
0.53531E+02
0.38160E+02
0.51080E+02
</weights>
<scales uborns=' 0.656257482E+03'> </scales>
</event>
<event>
      5  10001  6.95501E-01  7.84588E+01  7.29735E-03  1.28760E-01
      21    -1     0     0   513   515  0.000000000E+00  0.000000000E+00  2.619701840E+03  2.619701840E+03  0.000000000E+00  0.00000E+00  9.000E+00
       2    -1     0     0   511     0  0.000000000E+00  0.000000000E+00 -2.682614285E+03  2.682614285E+03  0.000000000E+00  0.00000E+00  9.000E+00
       2     1     1     2   513     0 -1.004272837E+03 -2.360932046E+03 -2.218075997E+02  2.575220897E+03  7.033954206E-05  0.00000E+00  9.000E+00
      21     1     1     2   511   515  1.070351936E+03  2.318631548E+03  2.942354013E+02  2.570657502E+03  3.776357627E-05  0.00000E+00  9.000E+00
      22     1     1     2     0     0 -6.607909882E+01  4.230049866E+01 -1.353402471E+02  1.564377256E+02  1.907348633E-06  0.00000E+00  9.000E+00
#rwgt            1         187   5.1254564383384242E-003       28582        2589           0
<weights>
0.22522E-01
0.16415E-01
0.31670E-01
0.18743E-01
0.27467E-01
0.19725E-01
0.25969E-01
</weights>
<scales uborns=' 0.255940635E+04'> </scales>
</event>
<event>
      4  10001  2.54109E+03  8.94427E-01  7.29735E-03  7.25563E-01
      21    -1     0     0   514   511  0.000000000E+00  0.000000000E+00  5.743211064E+02  5.743211064E+02  0.000000000E+00  0.00000E+00  9.000E+00
      -1    -1     0     0     0   512  0.000000000E+00  0.000000000E+00 -7.503883921E+02  7.503883921E+02  0.000000000E+00  0.00000E+00  9.000E+00
      -1     1     1     2     0   511  2.218498745E+01  5.541411815E+02 -4.424604039E+02  7.094616492E+02  1.078959322E-05  0.00000E+00  9.000E+00
      21     1     1     2   514   512 -2.218498745E+01 -5.541411815E+02  2.663931181E+02  6.152478493E+02  7.629394531E-06  0.00000E+00  9.000E+00
#rwgt            1         196   1.4212430603960629E-003       28582        3391           0
<weights>
0.98111E+04
0.76105E+04
0.12901E+05
0.88981E+04
0.10882E+05
0.83913E+04
0.11631E+05
</weights>
<scales uborns=' 0.255940635E+04'> </scales>
</event>
<event>
      5  10001  5.26320E-01  3.53242E+03  7.29735E-03  7.95175E-02
       2    -1     0     0   512     0  0.000000000E+00  0.000000000E+00  2.665014195E+03  2.665014195E+03  0.000000000E+00  0.00000E+00  9.000E+00
       1    -1     0     0   513     0  0.000000000E+00  0.000000000E+00 -2.929876666E+03  2.929876666E+03  0.000000000E+00  0.00000E+00  9.000E+00
      22     1     1     2     0     0 -3.386964155E+02 -1.761458324E+03  6.977473850E+02  1.924656359E+03  3.411968960E-05  0.00000E+00  9.000E+00
       1     1     1     2   512     0 -1.362689395E+03  9.121565225E+02 -4.195095538E+02  1.692613415E+03  3.145679951E-05  0.00000E+00  9.000E+00
       2     1     1     2   513     0  1.701385810E+03  8.493018010E+02 -5.431003023E+02  1.977621087E+03  4.885196104E-05  0.00000E+00  9.000E+00
#rwgt            1          92   3.7153406440001775E-003       28582        3599           0
<weights>
0.29955E-03
0.22617E-03
0.40465E-03
0.25803E-03
0.35130E-03
0.26257E-03
0.34504E-03
</weights>
<scales uborns=' 0.273619303E+04'> </scales>
</event>
<event>
      5  10001  1.15050E+03  4.18536E+02  7.29735E-03  1.01097E-01
      21    -1     0     0   511   513  0.000000000E+00  0.000000000E+00  1.929788175E+02  1.929788175E+02  0.000000000E+00  0.00000E+00  9.000E+00
       2    -1     0     0   514     0  0.000000000E+00  0.000000000E+00 -2.165674997E+03  2.165674997E+03  0.000000000E+00  0.00000E+00  9.000E+00
       2     1     1     2   511     0 -4.714671990E+02  4.006464687E+02 -8.498468307E+02  1.051208137E+03  1.078959322E-05  0.00000E+00  9.000E+00
      21     1     1     2   514   513  3.994088312E+02 -1.972459987E+02 -8.492733605E+02  9.590091967E+02  1.078959322E-05  0.00000E+00  9.000E+00
      22     1     1     2     0     0  7.205836774E+01 -2.034004700E+02 -2.735759888E+02  3.484364809E+02  3.814697266E-06  0.00000E+00  9.000E+00
#rwgt            1         187   6.6946904067676210E-003       28582        3764           0
<weights>
0.46083E+00
0.36291E+00
0.59539E+00
0.42328E+00
0.50368E+00
0.39511E+00
0.54474E+00
</weights>
<scales uborns=' 0.634730073E+03'> </scales>
</event>
<event>
      5  10001  1.36357E+02  2.34655E+02  7.29735E-03  1.09178E-01
       2    -1     0     0   512     0  0.000000000E+00  0.000000000E+00  9.924396083E+02  9.924396083E+02  0.000000000E+00  0.00000E+00  9.000E+00
       2    -1     0     0   511     0  0.000000000E+00  0.000000000E+00 -9.417817016E+02  9.417817016E+02  0.000000000E+00  0.00000E+00  9.000E+00
       2     1     1     2   512     0 -6.982228101E+02 -5.107244387E+02 -2.629327509E+02  9.041505274E+02  1.265191952E-05  0.00000E+00  9.000E+00
       2     1     1     2   511     0  6.372379028E+02  4.977393508E+02  1.086516459E+02  8.158564740E+02  1.341938713E-05  0.00000E+00  9.000E+00
      22     1     1     2     0     0  6.098490726E+01  1.298508793E+01  2.049390117E+02  2.142143084E+02  2.697398305E-06  0.00000E+00  9.000E+00
#rwgt            1          97   1.3109608470846805E-003       28582        3867           0
<weights>
0.24466E+00
0.20000E+00
0.30384E+00
0.23182E+00
0.25895E+00
0.21108E+00
0.28707E+00
</weights>
<scales uborns=' 0.917689869E+03'> </scales>
</event>
<event>
      5  10001  7.61638E+00  5.54025E+01  7.29735E-03  1.36580E-01
      21    -1     0     0   514   511  0.000000000E+00  0.000000000E+00  1.216319801E+03  1.216319801E+03  0.000000000E+00  0.00000E+00  9.000E+00
       2    -1     0     0   511     0  0.000000000E+00  0.000000000E+00 -3.097678626E+03  3.097678626E+03  0.000000000E+00  0.00000E+00  9.000E+00
      22     1     1     2     0     0 -8.186018946E+02 -1.592746201E+02 -1.198641136E+03  1.460211642E+03  0.000000000E+00  0.00000E+00  9.000E+00
      21     1     1     2   514   513  1.511313135E+03  3.503126962E+02  3.550810222E+02  1.591498951E+03  2.880033278E-05  0.00000E+00  9.000E+00
       2     1     1     2   513     0 -6.927112408E+02 -1.910380761E+02 -1.037798711E+03  1.262287834E+03  0.000000000E+00  0.00000E+00  9.000E+00
#rwgt            1         187   9.6737979189239591E-003       28582        4623           0
<weights>
0.62561E-02
0.46611E-02
0.85860E-02
0.53591E-02
0.73871E-02
0.54413E-02
0.72714E-02
</weights>
<scales uborns=' 0.155174800E+04'> </scales>
</event>
<event>
      5  10001  6.70650E+01  4.55631E+02  7.29735E-03  1.00012E-01
       2    -1     0     0   513     0  0.000000000E+00  0.000000000E+00  2.491784513E+03  2.491784513E+03  0.000000000E+00  0.00000E+00  9.000E+00
       2    -1     0     0   512     0  0.000000000E+00  0.000000000E+00 -3.199758227E+03  3.199758227E+03  0.000000000E+00  0.00000E+00  9.000E+00
       2     1     1     2   512     0  8.910892127E+02  4.999413750E+02  2.250922829E+03  2.471969852E+03  0.000000000E+00  0.00000E+00  9.000E+00
       2     1     1     2   513     0 -4.401756020E+02 -6.116481149E+02 -2.242627503E+03  2.365849973E+03  4.315837288E-05  0.00000E+00  9.000E+00
      22     1     1     2     0     0 -4.509136107E+02  1.117067399E+02 -7.162690404E+02  8.537229166E+02  7.629394531E-06  0.00000E+00  9.000E+00
#rwgt            1          97   4.0132399461725497E-002       28582        5581           0
<weights>
0.11636E+00
0.86739E-01
0.15974E+00
0.10033E+00
0.13646E+00
0.10059E+00
0.13621E+00
</weights>
<scales uborns=' 0.104023483E+04'> </scales>
</event>
<event>
      5  10001  3.90758E+02  4.84595E+01  7.29735E-03  1.39855E-01
       3    -1     0     0   512     0  0.000000000E+00  0.000000000E+00  4.030527488E+02  4.030527488E+02  0.000000000E+00  0.00000E+00  9.000E+00
       4    -1     0     0   511     0  0.000000000E+00  0.000000000E+00 -2.542821782E+03  2.542821782E+03  0.000000000E+00  0.00000E+00  9.000E+00
       3     1     1     2   511     0  6.122844446E+02 -4.537607669E+02 -1.033286703E+02  7.690694954E+02  1.440016639E-05  0.00000E+00  9.000E+00
       4     1     1     2   512     0 -5.219534408E+02  3.386917967E+02 -1.679323353E+03  1.790886499E+03  2.157918644E-05  0.00000E+00  9.000E+00
      22     1     1     2     0     0 -9.033100381E+01  1.150689702E+02 -3.571170099E+02  3.859185366E+02  7.629394531E-06  0.00000E+00  9.000E+00
#rwgt            1         108   7.3927206878639699E-006       28582        6820           0
<weights>
0.49311E+00
0.39886E+00
0.61787E+00
0.46372E+00
0.52470E+00
0.42414E+00
0.58067E+00
</weights>
<scales uborns=' 0.104023483E+04'> </scales>
</event>
<event>
      5  10001  3.13220E+05  3.82384E+01  7.29735E-03  1.46064E-01
      21    -1     0     0   511   514  0.000000000E+00  0.000000000E+00  1.907014852E+02  1.907014852E+02  0.000000000E+00  0.00000E+00  9.000E+00
      -1    -1     0     0     0   513  0.000000000E+00  0.000000000E+00 -3.973871633E+02  3.973871633E+02  0.000000000E+00  0.00000E+00  9.000E+00
      -1     1     1     2     0   514  2.055517584E+02 -1.459498297E+02 -1.352466264E+02  2.860848268E+02  1.907348633E-06  0.00000E+00  9.000E+00
      21     1     1     2   511   513 -2.167599835E+02  1.093910104E+02 -2.843536453E+01  2.444582859E+02  5.266838559E-06  0.00000E+00  9.000E+00
      22     1     1     2     0     0  1.120822510E+01  3.655881929E+01 -4.300368722E+01  5.754553581E+01  9.536743164E-07  0.00000E+00  9.000E+00
#rwgt            1         196   1.1778427104548483E-003       28582        7211           0
<weights>
0.62644E+04
0.50960E+04
0.78087E+04
0.60569E+04
0.64581E+04
0.52706E+04
0.75746E+04
</weights>
<scales uborns=' 0.246709855E+03'> </scales>
</event>
<event>
      5  10001  1.21738E+04  5.52122E+01  7.29735E-03  1.36662E-01
       2    -1     0     0   513     0  0.000000000E+00  0.000000000E+00  1.508396160E+03  1.508396160E+03  0.000000000E+00  0.00000E+00  9.000E+00
       3    -1     0     0   512     0  0.000000000E+00  0.000000000E+00 -2.113947553E+02  2.113947553E+02  0.000000000E+00  0.00000E+00  9.000E+00
       2     1     1     2   512     0 -3.145639333E+01  4.010890684E+02  6.765630989E+02  7.871464745E+02  1.078959322E-05  0.00000E+00  9.000E+00
       3     1     1     2   513     0  6.414771437E+01 -4.455825290E+02  1.737281454E+02  4.825351676E+02  8.313939941E-06  0.00000E+00  9.000E+00
      22     1     1     2     0     0 -3.269132103E+01  4.449346058E+01  4.467101608E+02  4.501092737E+02  5.394796609E-06  0.00000E+00  9.000E+00
#rwgt            1         102   3.0374889328631791E-004       28582        7281           0
<weights>
0.43408E+03
0.36144E+03
0.52777E+03
0.42471E+03
0.44254E+03
0.36941E+03
0.51769E+03
</weights>
<scales uborns=' 0.425476484E+03'> </scales>
</event>
<event>
      5  10001  1.92884E+06  1.47112E+02  7.29735E-03  1.16729E-01
       2    -1     0     0   513     0  0.000000000E+00  0.000000000E+00  5.702767289E+01  5.702767289E+01  0.000000000E+00  0.00000E+00  9.000E+00
      21    -1     0     0   514   513  0.000000000E+00  0.000000000E+00 -6.173097437E+02  6.173097437E+02  0.000000000E+00  0.00000E+00  9.000E+00
       2     1     1     2   511     0  5.929023662E+01  8.783877204E+01 -2.742727121E+02  2.940348663E+02  3.814697266E-06  0.00000E+00  9.000E+00
      21     1     1     2   514   511 -9.894112744E+01 -1.121331390E+02 -2.969961759E+02  3.325205498E+02  0.000000000E+00  0.00000E+00  9.000E+00
      22     1     1     2     0     0  3.965089083E+01  2.429436701E+01  1.098681715E+01  4.778200041E+01  7.633118912E-07  0.00000E+00  9.000E+00
#rwgt            1         182   6.8266142428395908E-004       28582        7593           0
<weights>
0.14313E+04
0.11594E+04
0.17956E+04
0.13879E+04
0.14722E+04
0.11957E+04
0.17458E+04
</weights>
<scales uborns=' 0.182069342E+03'> </scales>
</event>
<event>
      5  10001  2.62659E+05  1.22144E+01  7.29735E-03  1.86223E-01
       5    -1     0     0   511     0  0.000000000E+00  0.000000000E+00  7.294916840E+02  7.294916840E+02  0.000000000E+00  0.00000E+00  9.000E+00
       2    -1     0     0   512     0  0.000000000E+00  0.000000000E+00 -1.766944591E+02  1.766944591E+02  0.000000000E+00  0.00000E+00  9.000E+00
       5     1     1     2   512     0  1.108909008E+02  2.289505273E+02  5.732514468E+02  6.271621458E+02  1.078959322E-05  0.00000E+00  9.000E+00
       2     1     1     2   511     0 -1.215314692E+02 -2.229531152E+02 -3.891343982E+01  2.568895587E+02  7.088693975E-06  0.00000E+00  9.000E+00
      22     1     1     2     0     0  1.064056840E+01 -5.997412142E+00  1.845921788E+01  2.213443862E+01  3.371747881E-07  0.00000E+00  9.000E+00
#rwgt            1         100   9.3345139221275569E-006       28582        7705           0
<weights>
0.12790E+05
0.11317E+05
0.14357E+05
0.13442E+05
0.11883E+05
0.10768E+05
0.15453E+05
</weights>
<scales uborns=' 0.254085097E+03'> </scales>
</event>
<event>
      4  10001  2.50048E+04  8.94427E-01  7.29735E-03  7.24505E-01
      -1    -1     0     0     0   513  0.000000000E+00  0.000000000E+00  9.277116637E+02  9.277116637E+02  0.000000000E+00  0.00000E+00  9.000E+00
      21    -1     0     0   513   514  0.000000000E+00  0.000000000E+00 -3.219977660E+02  3.219977660E+02  0.000000000E+00  0.00000E+00  9.000E+00
      -1     1     1     2     0   512  3.236767354E+02  1.931434678E+02  7.553494530E+02  8.441704948E+02  1.078959322E-05  0.00000E+00  9.000E+00
      21     1     1     2   512   514 -3.236767354E+02 -1.931434678E+02 -1.496355553E+02  4.055389348E+02  6.877043296E-06  0.00000E+00  9.000E+00
#rwgt            1         191   6.5668069762746782E-004       28582       10526           0
<weights>
0.40977E+05
0.31776E+05
0.53911E+05
0.37429E+05
0.45074E+05
0.34789E+05
0.49011E+05
</weights>
<scales uborns=' 0.254085097E+03'> </scales>
</event>
<event>
      5  10001  1.00852E+01  5.00219E+01  7.29735E-03  1.39064E-01
      -1    -1     0     0     0   511  0.000000000E+00  0.000000000E+00  8.853489476E+02  8.853489476E+02  0.000000000E+00  0.00000E+00  9.000E+00
       2    -1     0     0   511     0  0.000000000E+00  0.000000000E+00 -2.519918250E+03  2.519918250E+03  0.000000000E+00  0.00000E+00  9.000E+00
       2     1     1     2   512     0 -3.642622911E+02 -1.055270606E+03 -8.002326058E+02  1.373555711E+03  2.854658040E-05  0.00000E+00  9.000E+00
      -1     1     1     2     0   512  4.945950100E+02  1.383959799E+03 -5.210916592E+02  1.559328531E+03  3.236877966E-05  0.00000E+00  9.000E+00
      22     1     1     2     0     0 -1.303327189E+02 -3.286891932E+02 -3.132450373E+02  4.723829556E+02  1.265191952E-05  0.00000E+00  9.000E+00
#rwgt            1         161   5.0221221564334631E-004       28582       10836           0
<weights>
0.70457E-02
0.55007E-02
0.91898E-02
0.63294E-02
0.78994E-02
0.61232E-02
0.81966E-02
</weights>
<scales uborns=' 0.147095052E+04'> </scales>
</event>
<event>
      5  10001  1.44612E+05  2.69615E+01  7.29735E-03  1.56332E-01
      -5    -1     0     0     0   511  0.000000000E+00  0.000000000E+00  4.968028680E+01  4.968028680E+01  0.000000000E+00  0.00000E+00  9.000E+00
       1    -1     0     0   511     0  0.000000000E+00  0.000000000E+00 -2.294750261E+03  2.294750261E+03  0.000000000E+00  0.00000E+00  9.000E+00
       1     1     1     2   513     0 -2.316370531E+02  1.524295214E+02 -1.400289038E+03  1.427480253E+03  2.157918644E-05  0.00000E+00  9.000E+00
      -5     1     1     2     0   513  2.226056281E+02 -1.778334284E+02 -8.430944050E+02  8.899360481E+02  1.078959322E-05  0.00000E+00  9.000E+00
      22     1     1     2     0     0  9.031424999E+00  2.540390698E+01 -1.686531187E+00  2.701424651E+01  5.982774466E-07  0.00000E+00  9.000E+00
#rwgt            1         177   9.5579912394985289E-005       28582       11155           0
<weights>
0.28922E+04
0.24773E+04
0.33681E+04
0.29360E+04
0.27952E+04
0.24404E+04
0.34850E+04
</weights>
<scales uborns=' 0.280782650E+03'> </scales>
</event>
<event>
      5  10001  7.86725E+02  1.68907E+01  7.29735E-03  1.72660E-01
      21    -1     0     0   513   511  0.000000000E+00  0.000000000E+00  4.285418314E+02  4.285418314E+02  0.000000000E+00  0.00000E+00  9.000E+00
       2    -1     0     0   511     0  0.000000000E+00  0.000000000E+00 -2.640781497E+03  2.640781497E+03  0.000000000E+00  0.00000E+00  9.000E+00
       2     1     1     2   512     0 -2.120439831E+02 -6.431439956E+02 -1.152624440E+03  1.336839538E+03  2.642899792E-05  0.00000E+00  9.000E+00
      21     1     1     2   513   512  1.960931613E+02  6.486998196E+02 -4.975128178E+00  6.777084445E+02  1.035835440E-05  0.00000E+00  9.000E+00
      22     1     1     2     0     0  1.595082180E+01 -5.555823973E+00 -1.054640098E+03  1.054775347E+03  2.157918644E-05  0.00000E+00  9.000E+00
#rwgt            1         187   1.2960304342459707E-002       28582       11184           0
<weights>
0.36219E+02
0.28305E+02
0.47230E+02
0.32976E+02
0.40009E+02
0.31089E+02
0.42755E+02
</weights>
<scales uborns=' 0.677391358E+03'> </scales>
</event>
<event>
      5  10001  6.71577E+01  7.15823E+00  7.29735E-03  2.14190E-01
      21    -1     0     0   514   511  0.000000000E+00  0.000000000E+00  1.219252611E+03  1.219252611E+03  0.000000000E+00  0.00000E+00  9.000E+00
       2    -1     0     0   512     0  0.000000000E+00  0.000000000E+00 -2.157892466E+03  2.157892466E+03  0.000000000E+00  0.00000E+00  9.000E+00
      22     1     1     2     0     0 -5.269123632E+02  4.612007809E+02 -1.197919992E+03  1.387571658E+03  0.000000000E+00  0.00000E+00  9.000E+00
      21     1     1     2   512   511  7.817123665E+02 -6.859011306E+02  8.265017724E+02  1.328397442E+03  1.868812365E-05  0.00000E+00  9.000E+00
       2     1     1     2   514     0 -2.548000033E+02  2.247003497E+02 -5.672216356E+02  6.611759771E+02  7.629394531E-06  0.00000E+00  9.000E+00
#rwgt            1         187   9.3358804193354114E-003       28582       12442           0
<weights>
0.16599E+00
0.12470E+00
0.22595E+00
0.14425E+00
0.19302E+00
0.14350E+00
0.19430E+00
</weights>
<scales uborns=' 0.103997916E+04'> </scales>
</event>
<event>
      5  10001  1.41320E+01  6.13513E+01  7.29735E-03  1.34188E-01
       2    -1     0     0   513     0  0.000000000E+00  0.000000000E+00  2.221751142E+03  2.221751142E+03  0.000000000E+00  0.00000E+00  9.000E+00
       2    -1     0     0   511     0  0.000000000E+00  0.000000000E+00 -2.384136477E+03  2.384136477E+03  0.000000000E+00  0.00000E+00  9.000E+00
       2     1     1     2   513     0  1.035922121E+03  8.885761164E+02 -1.724668634E+03  2.199359919E+03  2.157918644E-05  0.00000E+00  9.000E+00
       2     1     1     2   511     0 -1.094000295E+03 -8.688046836E+02  1.732505946E+03  2.225586457E+03  2.157918644E-05  0.00000E+00  9.000E+00
      22     1     1     2     0     0  5.807817455E+01 -1.977143282E+01 -1.702226475E+02  1.809412436E+02  0.000000000E+00  0.00000E+00  9.000E+00
#rwgt            1          97   9.5176468694734839E-003       28582       15318           0
<weights>
0.84921E+00
0.65660E+00
0.11198E+01
0.75622E+00
0.96148E+00
0.73734E+00
0.98902E+00
</weights>
<scales uborns=' 0.138062962E+04'> </scales>
</event>
<event>
      5  10001  9.67960E+05  5.44220E+02  7.29735E-03  9.78175E-02
       2    -1     0     0   512     0  0.000000000E+00  0.000000000E+00  3.432895441E+02  3.432895441E+02  0.000000000E+00  0.00000E+00  9.000E+00
      -4    -1     0     0     0   512  0.000000000E+00  0.000000000E+00 -2.446006428E+02  2.446006428E+02  0.000000000E+00  0.00000E+00  9.000E+00
       2     1     1     2   511     0 -1.722095726E+01  4.137111652E+01  3.338883519E+02  3.368821191E+02  7.629394531E-06  0.00000E+00  9.000E+00
      -4     1     1     2     0   511 -7.050125717E+00  1.414061772E+01 -1.230652606E+01  2.002777885E+01  4.476304854E-06  0.00000E+00  9.000E+00
      22     1     1     2     0     0  2.427108297E+01 -5.551173424E+01 -2.228929245E+02  2.309802890E+02  6.607249480E-06  0.00000E+00  9.000E+00
#rwgt            1         147   5.1071746500192159E-005       28582       18973           0
<weights>
0.46113E+03
0.40001E+03
0.53322E+03
0.47750E+03
0.43866E+03
0.38629E+03
0.56054E+03
</weights>
<scales uborns=' 0.204295937E+03'> </scales>
</event>
<event>
      4  10001  1.25173E+05  8.94427E-01  7.29735E-03  7.07850E-01
      21    -1     0     0   513   514  0.000000000E+00  0.000000000E+00  2.888733181E+02  2.888733181E+02  0.000000000E+00  0.00000E+00  9.000E+00
       1    -1     0     0   511     0  0.000000000E+00  0.000000000E+00 -2.994851012E+02  2.994851012E+02  0.000000000E+00  0.00000E+00  9.000E+00
       1     1     1     2   513     0 -2.435979619E+02 -1.529880825E+02  5.608759836E+01  2.930719009E+02  3.303624740E-06  0.00000E+00  9.000E+00
      21     1     1     2   511   514  2.435979619E+02  1.529880825E+02 -6.669938149E+01  2.952865183E+02  1.651812370E-06  0.00000E+00  9.000E+00
#rwgt            1         186   8.7346125550910960E-004       28582       19050           0
<weights>
0.28228E+06
0.22839E+06
0.35439E+06
0.27054E+06
0.29430E+06
0.23830E+06
0.33992E+06
</weights>
<scales uborns=' 0.204295937E+03'> </scales>
</event>
<event>
      5  10001  7.92832E-01  5.63325E+02  7.29735E-03  9.74026E-02
       2    -1     0     0   515     0  0.000000000E+00  0.000000000E+00  2.936515414E+03  2.936515414E+03  0.000000000E+00  0.00000E+00  9.000E+00
      21    -1     0     0   512   513  0.000000000E+00  0.000000000E+00 -2.813812826E+03  2.813812826E+03  0.000000000E+00  0.00000E+00  9.000E+00
       2     1     1     2   512     0 -1.478072043E+03 -1.581043657E+03 -1.203480589E+03  2.476441305E+03  3.051757812E-05  0.00000E+00  9.000E+00
      21     1     1     2   515   513  1.241518269E+03  2.012992243E+03  1.439289939E+03  2.768584640E+03  4.037096117E-05  0.00000E+00  9.000E+00
      22     1     1     2     0     0  2.365537741E+02 -4.319485855E+02 -1.131067632E+02  5.053022941E+02  1.095688371E-05  0.00000E+00  9.000E+00
#rwgt            1         182   1.0073804286026321E-003       28582       19376           0
<weights>
0.45695E-03
0.32734E-03
0.65522E-03
0.37392E-03
0.56799E-03
0.40003E-03
0.52712E-03
</weights>
<scales uborns=' 0.248252512E+04'> </scales>
</event>
<event>
      5  10001  6.38806E+04  4.08633E+01  7.29735E-03  1.44267E-01
       2    -1     0     0   512     0  0.000000000E+00  0.000000000E+00  7.305990936E+02  7.305990936E+02  0.000000000E+00  0.00000E+00  9.000E+00
      21    -1     0     0   511   514  0.000000000E+00  0.000000000E+00 -1.955867696E+02  1.955867696E+02  0.000000000E+00  0.00000E+00  9.000E+00
       2     1     1     2   511     0  1.596244103E+02 -2.386569331E+02  4.121069895E+02  5.022641286E+02  5.394796609E-06  0.00000E+00  9.000E+00
      21     1     1     2   512   514 -1.981879227E+02  2.473308566E+02  2.451291041E+01  3.178865963E+02  3.388564683E-06  0.00000E+00  9.000E+00
      22     1     1     2     0     0  3.856351241E+01 -8.673923496E+00  9.839242413E+01  1.060351383E+02  1.348699152E-06  0.00000E+00  9.000E+00
#rwgt            1         182   6.5244041858971494E-003       28582       19519           0
<weights>
0.40019E+04
0.32419E+04
0.50157E+04
0.38310E+04
0.41773E+04
0.33866E+04
0.48052E+04
</weights>
<scales uborns=' 0.248252512E+04'> </scales>
</event>
<event>
      5  10001  6.75004E+03  2.60975E+00  7.29735E-03  3.16529E-01
      21    -1     0     0   513   511  0.000000000E+00  0.000000000E+00  1.751086562E+02  1.751086562E+02  0.000000000E+00  0.00000E+00  9.000E+00
       2    -1     0     0   515     0  0.000000000E+00  0.000000000E+00 -1.913940097E+03  1.913940097E+03  0.000000000E+00  0.00000E+00  9.000E+00
       2     1     1     2   513     0  3.154558902E+02  3.472282705E+02 -5.724292556E+02  7.401048190E+02  1.525878906E-05  0.00000E+00  9.000E+00
      21     1     1     2   515   511 -3.180655952E+02 -3.472130644E+02 -5.160695084E+02  6.986060209E+02  0.000000000E+00  0.00000E+00  9.000E+00
      22     1     1     2     0     0  2.609705006E+00 -1.520608258E-02 -6.503326768E+02  6.503379131E+02  0.000000000E+00  0.00000E+00  9.000E+00
#rwgt            1         187   9.9557595531338423E-003       28582       20014           0
<weights>
0.78597E+03
0.63262E+03
0.99170E+03
0.74195E+03
0.83346E+03
0.67016E+03
0.93520E+03
</weights>
<scales uborns=' 0.469998721E+03'> </scales>
</event>
<event>
      5  10001  6.53005E+03  2.46196E+00  7.29735E-03  3.25606E-01
      -2    -1     0     0     0   512  0.000000000E+00  0.000000000E+00  6.429511139E+02  6.429511139E+02  0.000000000E+00  0.00000E+00  9.000E+00
      21    -1     0     0   511   513  0.000000000E+00  0.000000000E+00 -5.331878543E+02  5.331878543E+02  0.000000000E+00  0.00000E+00  9.000E+00
      22     1     1     2     0     0 -3.976789382E+02 -1.974774229E+02  3.747832897E+02  5.810407771E+02  1.321449896E-05  0.00000E+00  9.000E+00
      21     1     1     2   511   512  4.236578211E+02  2.094544131E+02 -2.921968297E+02  5.556402503E+02  9.344061824E-06  0.00000E+00  9.000E+00
      -2     1     1     2     0   513 -2.597888287E+01 -1.197699016E+01  2.717679963E+01  3.945794073E+01  4.768371582E-07  0.00000E+00  9.000E+00
#rwgt            1         192   7.6626670290897586E-004       28582       23240           0
<weights>
0.50532E+03
0.39529E+03
0.65851E+03
0.46355E+03
0.55350E+03
0.43091E+03
0.60119E+03
</weights>
<scales uborns=' 0.469998721E+03'> </scales>
</event>
<event>
      5  10001  1.17076E+07  1.09498E+00  7.29735E-03  5.89322E-01
       1    -1     0     0   513     0  0.000000000E+00  0.000000000E+00  1.755069129E+02  1.755069129E+02  0.000000000E+00  0.00000E+00  9.000E+00
      21    -1     0     0   515   513  0.000000000E+00  0.000000000E+00 -4.208085996E+02  4.208085996E+02  0.000000000E+00  0.00000E+00  9.000E+00
      22     1     1     2     0     0 -1.099237839E+02  2.023229563E+01  1.126959273E+02  1.587228909E+02  1.907348633E-06  0.00000E+00  9.000E+00
      21     1     1     2   515   514  1.327006449E+02 -2.335368093E+01 -3.815728031E+02  4.046636377E+02  7.629394531E-06  0.00000E+00  9.000E+00
       1     1     1     2   514     0 -2.277686106E+01  3.121385300E+00  2.357518908E+01  3.292898398E+01  7.539457465E-07  0.00000E+00  9.000E+00
#rwgt            1         181   8.6788719804707832E-004       28582       23627           0
<weights>
0.30887E+06
0.24531E+06
0.39630E+06
0.29590E+06
0.32185E+06
0.25605E+06
0.38031E+06
</weights>
<scales uborns=' 0.469998721E+03'> </scales>
</event>
<event>
      5  10001  2.88866E+04  2.90193E+01  7.29735E-03  1.54049E-01
      21    -1     0     0   512   514  0.000000000E+00  0.000000000E+00  4.160375373E+02  4.160375373E+02  0.000000000E+00  0.00000E+00  9.000E+00
      -4    -1     0     0     0   511  0.000000000E+00  0.000000000E+00 -1.067289446E+03  1.067289446E+03  0.000000000E+00  0.00000E+00  9.000E+00
      22     1     1     2     0     0 -2.113213962E+02  2.213341358E+02 -7.243141309E+02  7.863055973E+02  1.525878906E-05  0.00000E+00  9.000E+00
      21     1     1     2   512   511  2.497236672E+02 -2.693014176E+02  2.922674100E+02  4.693670232E+02  1.144409180E-05  0.00000E+00  9.000E+00
      -4     1     1     2     0   514 -3.840227099E+01  4.796728184E+01 -2.192051879E+02  2.276543629E+02  0.000000000E+00  0.00000E+00  9.000E+00
#rwgt            1         199   2.3744535550206678E-004       28582       23962           0
<weights>
0.48529E+02
0.39348E+02
0.60451E+02
0.46371E+02
0.50512E+02
0.41180E+02
0.58077E+02
</weights>
<scales uborns=' 0.367888737E+03'> </scales>
</event>
<event>
      5  10001  1.78995E+03  3.47703E+02  7.29735E-03  1.03551E-01
      21    -1     0     0   513   514  0.000000000E+00  0.000000000E+00  1.750827155E+03  1.750827155E+03  0.000000000E+00  0.00000E+00  9.000E+00
      21    -1     0     0   514   512  0.000000000E+00  0.000000000E+00 -2.111609809E+02  2.111609809E+02  0.000000000E+00  0.00000E+00  9.000E+00
       1     1     1     2   513     0 -3.535406026E+02 -3.473821060E+02  8.798019465E+02  1.009810255E+03  0.000000000E+00  0.00000E+00  9.000E+00
      -1     1     1     2     0   512  4.456243809E+02  1.562331921E+02  4.203908430E+02  6.322328369E+02  1.206313194E-05  0.00000E+00  9.000E+00
      22     1     1     2     0     0 -9.208377828E+01  1.911489138E+02  2.394733844E+02  3.199450442E+02  3.814697266E-06  0.00000E+00  9.000E+00
#rwgt            1         201   4.3810856719219935E-005       28582       24119           0
<weights>
0.35799E+02
0.26843E+02
0.48817E+02
0.31351E+02
0.41232E+02
0.30652E+02
0.42385E+02
</weights>
<scales uborns=' 0.367888737E+03'> </scales>
</event>
<event>
      4  10001  4.39666E+03  8.94427E-01  7.29735E-03  7.41583E-01
       1    -1     0     0   512     0  0.000000000E+00  0.000000000E+00  4.289427687E+02  4.289427687E+02  0.000000000E+00  0.00000E+00  9.000E+00
      21    -1     0     0   511   513  0.000000000E+00  0.000000000E+00 -7.387911128E+02  7.387911128E+02  0.000000000E+00  0.00000E+00  9.000E+00
       1     1     1     2   511     0 -2.576921634E+02 -4.347052282E+02  1.023403879E+02  5.156039580E+02  8.422623507E-06  0.00000E+00  9.000E+00
      21     1     1     2   512   513  2.576921634E+02  4.347052282E+02 -4.121887320E+02  6.521299236E+02  9.344061824E-06  0.00000E+00  9.000E+00
#rwgt            1         181   1.5537791729170875E-003       28582       24230           0
<weights>
0.81448E+04
0.64090E+04
0.10548E+05
0.75062E+04
0.88796E+04
0.69542E+04
0.96755E+04
</weights>
<scales uborns=' 0.367888737E+03'> </scales>
</event>
<event>
      5  10001  1.78938E+02  5.36314E+02  7.29735E-03  9.79945E-02
      21    -1     0     0   511   515  0.000000000E+00  0.000000000E+00  3.387576643E+02  3.387576643E+02  0.000000000E+00  0.00000E+00  9.000E+00
       2    -1     0     0   515     0  0.000000000E+00  0.000000000E+00 -2.354834617E+03  2.354834617E+03  0.000000000E+00  0.00000E+00  9.000E+00
       2     1     1     2   514     0  1.438611324E+01  4.065742330E+02 -5.322105068E+01  4.102950736E+02  1.055524045E-05  0.00000E+00  9.000E+00
      21     1     1     2   511   514  7.776758943E+01 -7.703944708E+02 -1.130620406E+03  1.370349569E+03  1.525878906E-05  0.00000E+00  9.000E+00
      22     1     1     2     0     0 -9.215370266E+01  3.638202379E+02 -8.322354962E+02  9.129476390E+02  1.525878906E-05  0.00000E+00  9.000E+00
#rwgt            1         187   5.6537609340801846E-003       28582       24732           0
<weights>
0.94654E-01
0.73516E-01
0.12419E+00
0.85277E-01
0.10574E+00
0.81600E-01
0.11116E+00
</weights>
<scales uborns=' 0.875060069E+03'> </scales>
</event>
<event>
      5  10001  4.82921E+03  1.87276E+01  7.29735E-03  1.68759E-01
       4    -1     0     0   514     0  0.000000000E+00  0.000000000E+00  3.228243985E+03  3.228243985E+03  0.000000000E+00  0.00000E+00  9.000E+00
      21    -1     0     0   512   513  0.000000000E+00  0.000000000E+00 -1.653414523E+02  1.653414523E+02  0.000000000E+00  0.00000E+00  9.000E+00
       4     1     1     2   512     0  2.234978343E+02  3.885715884E+02  2.410108468E+03  2.451440799E+03  4.315837288E-05  0.00000E+00  9.000E+00
      21     1     1     2   514   513 -2.442913922E+02 -4.325864020E+02  2.882544172E+02  5.743691222E+02  1.009274029E-05  0.00000E+00  9.000E+00
      22     1     1     2     0     0  2.079355794E+01  4.401481365E+01  3.645396477E+02  3.677755166E+02  0.000000000E+00  0.00000E+00  9.000E+00
#rwgt            1         184   2.2423987098496058E-004       28582       24824           0
<weights>
0.45804E+01
0.35137E+01
0.60861E+01
0.41164E+01
0.51215E+01
0.39097E+01
0.54431E+01
</weights>
<scales uborns=' 0.497381244E+03'> </scales>
</event>
<event>
      5  10001  2.52716E+02  4.63372E+00  7.29735E-03  2.49275E-01
       1    -1     0     0   511     0  0.000000000E+00  0.000000000E+00  1.103860470E+03  1.103860470E+03  0.000000000E+00  0.00000E+00  9.000E+00
       1    -1     0     0   512     0  0.000000000E+00  0.000000000E+00 -1.873745908E+03  1.873745908E+03  0.000000000E+00  0.00000E+00  9.000E+00
       1     1     1     2   511     0  6.459060219E+02 -5.149435402E+02 -1.551771594E+03  1.757940988E+03  2.157918644E-05  0.00000E+00  9.000E+00
       1     1     1     2   512     0 -6.440056913E+02  5.107174168E+02  5.528103568E+02  9.905427304E+02  2.854658040E-05  0.00000E+00  9.000E+00
      22     1     1     2     0     0 -1.900330686E+00  4.226123363E+00  2.290757988E+02  2.291226593E+02  3.814697266E-06  0.00000E+00  9.000E+00
#rwgt            1          91   6.4469235701636687E-004       28582       25109           0
<weights>
0.85416E+01
0.66788E+01
0.11134E+02
0.77550E+01
0.94695E+01
0.73563E+01
0.10043E+02
</weights>
<scales uborns=' 0.823991141E+03'> </scales>
</event>
<event>
      5  10001  2.03909E+04  3.41114E+01  7.29735E-03  1.49264E-01
      -3    -1     0     0     0   513  0.000000000E+00  0.000000000E+00  2.614569441E+02  2.614569441E+02  0.000000000E+00  0.00000E+00  9.000E+00
      21    -1     0     0   511   514  0.000000000E+00  0.000000000E+00 -6.347721966E+02  6.347721966E+02  0.000000000E+00  0.00000E+00  9.000E+00
      22     1     1     2     0     0 -3.245384454E+02 -1.559055461E+02 -2.608282515E+01  3.609876114E+02  9.876401509E-06  0.00000E+00  9.000E+00
      21     1     1     2   511   513  3.415685850E+02  1.701772356E+02 -3.090365220E+02  4.910529113E+02  7.629394531E-06  0.00000E+00  9.000E+00
      -3     1     1     2     0   514 -1.703013961E+01 -1.427168955E+01 -3.819590527E+01  4.418861796E+01  6.743495762E-07  0.00000E+00  9.000E+00
#rwgt            1         193   4.3703364934190569E-004       28582       25619           0
<weights>
0.94557E+01
0.75695E+01
0.11999E+02
0.89099E+01
0.10041E+02
0.80332E+01
0.11300E+02
</weights>
<scales uborns=' 0.390079393E+03'> </scales>
</event>
<event>
      5  10001  1.83243E+04  4.66887E+01  7.29735E-03  1.40795E-01
       2    -1     0     0   514     0  0.000000000E+00  0.000000000E+00  1.219762634E+03  1.219762634E+03  0.000000000E+00  0.00000E+00  9.000E+00
      21    -1     0     0   515   514  0.000000000E+00  0.000000000E+00 -3.156065856E+02  3.156065856E+02  0.000000000E+00  0.00000E+00  9.000E+00
      22     1     1     2     0     0 -4.787838716E+00  7.891883759E+01  2.363325701E+02  2.492071227E+02  6.031565972E-06  0.00000E+00  9.000E+00
      21     1     1     2   515   512  2.808349667E+01 -3.960046177E+02 -1.376692095E+02  4.201918030E+02  6.325959759E-06  0.00000E+00  9.000E+00
       2     1     1     2   512     0 -2.329565795E+01  3.170857801E+02  8.054926882E+02  8.659702942E+02  1.078959322E-05  0.00000E+00  9.000E+00
#rwgt            1         182   8.6910963986502315E-003       28582       25669           0
<weights>
0.21897E+02
0.17236E+02
0.28345E+02
0.20281E+02
0.23729E+02
0.18610E+02
0.26157E+02
</weights>
<scales uborns=' 0.397157134E+03'> </scales>
</event>
<event>
      4  10001  5.08805E+02  8.94427E-01  7.29735E-03  7.41777E-01
       1    -1     0     0   512     0  0.000000000E+00  0.000000000E+00  3.794870021E+02  3.794870021E+02  0.000000000E+00  0.00000E+00  9.000E+00
      21    -1     0     0   511   513  0.000000000E+00  0.000000000E+00 -1.689178011E+03  1.689178011E+03  0.000000000E+00  0.00000E+00  9.000E+00
       1     1     1     2   511     0 -8.407635323E+01 -7.252061925E+02 -2.302331063E+02  7.655064585E+02  5.394796609E-06  0.00000E+00  9.000E+00
      21     1     1     2   512   513  8.407635323E+01  7.252061925E+02 -1.079457902E+03  1.303158554E+03  1.525878906E-05  0.00000E+00  9.000E+00
#rwgt            1         181   8.3681437074925699E-004       28582       26158           0
<weights>
0.10655E+04
0.81771E+03
0.14180E+04
0.95141E+03
0.12030E+04
0.91573E+03
0.12558E+04
</weights>
<scales uborns=' 0.397157134E+03'> </scales>
</event>
<event>
      5  10001  3.14649E+01  4.02108E+01  7.29735E-03  1.44699E-01
       1    -1     0     0   511     0  0.000000000E+00  0.000000000E+00  8.907805761E+02  8.907805761E+02  0.000000000E+00  0.00000E+00  9.000E+00
       2    -1     0     0   514     0  0.000000000E+00  0.000000000E+00 -2.224075769E+03  2.224075769E+03  0.000000000E+00  0.00000E+00  9.000E+00
       1     1     1     2   514     0  3.776561155E+00  1.172975805E+03 -2.150480104E+01  1.173178996E+03  3.207859741E-05  0.00000E+00  9.000E+00
       2     1     1     2   511     0  1.029977984E+01 -1.210642280E+03 -1.396303004E+03  1.848086279E+03  2.157918644E-05  0.00000E+00  9.000E+00
      22     1     1     2     0     0 -1.407634100E+01  3.766647571E+01  8.451261212E+01  9.359106996E+01  1.348699152E-06  0.00000E+00  9.000E+00
#rwgt            1          96   1.9302762823136363E-003       28582       26781           0
<weights>
0.13188E+01
0.10456E+01
0.16923E+01
0.12069E+01
0.14493E+01
0.11425E+01
0.15399E+01
</weights>
<scales uborns=' 0.119169448E+04'> </scales>
</event>
<event>
      5  10001  9.84140E+04  3.15719E+00  7.29735E-03  2.90296E-01
      21    -1     0     0   513   514  0.000000000E+00  0.000000000E+00  3.028356561E+02  3.028356561E+02  0.000000000E+00  0.00000E+00  9.000E+00
       2    -1     0     0   514     0  0.000000000E+00  0.000000000E+00 -2.590067211E+03  2.590067211E+03  0.000000000E+00  0.00000E+00  9.000E+00
       2     1     1     2   512     0 -2.874294307E+02  2.435663830E+01 -2.403556384E+03  2.420804043E+03  6.103515625E-05  0.00000E+00  9.000E+00
      21     1     1     2   513   512  2.986265515E+02 -2.235319523E+01  2.176094493E+02  3.701774643E+02  6.031565972E-06  0.00000E+00  9.000E+00
      22     1     1     2     0     0 -1.119712087E+01 -2.003443070E+00 -1.012846200E+02  1.019213597E+02  0.000000000E+00  0.00000E+00  9.000E+00
#rwgt            1         187   1.7720506169073058E-002       28582       30053           0
<weights>
0.95721E+04
0.71947E+04
0.13043E+05
0.85151E+04
0.10843E+05
0.80878E+04
0.11515E+05
</weights>
<scales uborns=' 0.119169448E+04'> </scales>
</event>
<event>
      5  10001  9.30375E+00  1.14271E+02  7.29735E-03  1.21277E-01
       2    -1     0     0   512     0  0.000000000E+00  0.000000000E+00  3.193033005E+03  3.193033005E+03  0.000000000E+00  0.00000E+00  9.000E+00
      21    -1     0     0   511   515  0.000000000E+00  0.000000000E+00 -9.346516889E+02  9.346516889E+02  0.000000000E+00  0.00000E+00  9.000E+00
       2     1     1     2   511     0  2.288237280E+02 -1.463853653E+03  1.818713568E+02  1.492750819E+03  1.727177646E-05  0.00000E+00  9.000E+00
      21     1     1     2   512   515 -3.430116535E+02  1.468219810E+03  1.931657309E+03  2.450433913E+03  2.157918644E-05  0.00000E+00  9.000E+00
      22     1     1     2     0     0  1.141879255E+02 -4.366156879E+00  1.448526502E+02  1.844999618E+02  1.907348633E-06  0.00000E+00  9.000E+00
#rwgt            1         182   1.6567259511970126E-003       28582       33678           0
<weights>
0.26172E+00
0.19715E+00
0.35490E+00
0.22680E+00
0.30514E+00
0.22751E+00
0.30440E+00
</weights>
<scales uborns=' 0.149361140E+04'> </scales>
</event>
<event>
      5  10001  2.34197E+01  1.31088E+02  7.29735E-03  1.18761E-01
       1    -1     0     0   511     0  0.000000000E+00  0.000000000E+00  1.885515178E+03  1.885515178E+03  0.000000000E+00  0.00000E+00  9.000E+00
       2    -1     0     0   513     0  0.000000000E+00  0.000000000E+00 -1.944027117E+03  1.944027117E+03  0.000000000E+00  0.00000E+00  9.000E+00
       1     1     1     2   513     0  1.217187612E+03 -1.624265134E+02  1.346448469E+03  1.822320371E+03  5.501634637E-05  0.00000E+00  9.000E+00
       2     1     1     2   511     0 -1.289140333E+03  5.285109914E+01 -1.342605860E+03  1.862059756E+03  4.825252777E-05  0.00000E+00  9.000E+00
      22     1     1     2     0     0  7.195272144E+01  1.095754142E+02 -6.235454781E+01  1.451621685E+02  2.523185073E-06  0.00000E+00  9.000E+00
#rwgt            1          96   3.0795177517410435E-003       28582       34011           0
<weights>
0.65929E+00
0.51188E+00
0.86537E+00
0.59037E+00
0.74182E+00
0.57164E+00
0.76909E+00
</weights>
<scales uborns=' 0.125759833E+04'> </scales>
</event>
<event>
      5  10001  1.03579E+04  7.60902E+01  7.29735E-03  1.29412E-01
       2    -1     0     0   513     0  0.000000000E+00  0.000000000E+00  1.789376450E+03  1.789376450E+03  0.000000000E+00  0.00000E+00  9.000E+00
       4    -1     0     0   512     0  0.000000000E+00  0.000000000E+00 -1.118018112E+02  1.118018112E+02  0.000000000E+00  0.00000E+00  9.000E+00
      22     1     1     2     0     0  2.064259809E+01 -9.095947888E+00  4.441743750E+01  4.981728493E+01  0.000000000E+00  0.00000E+00  9.000E+00
       4     1     1     2   513     0 -4.034066094E+02  1.681689018E+02  6.381454567E+02  7.734644762E+02  7.629394531E-06  0.00000E+00  9.000E+00
       2     1     1     2   512     0  3.827640113E+02 -1.590729539E+02  9.950117445E+02  1.077896500E+03  1.078959322E-05  0.00000E+00  9.000E+00
#rwgt            1         107   1.7926525371213687E-004       28582       35861           0
<weights>
0.56421E+01
0.47566E+01
0.67452E+01
0.55864E+01
0.56595E+01
0.48041E+01
0.67246E+01
</weights>
<scales uborns=' 0.437223797E+03'> </scales>
</event>
<event>
      5  10001  1.80407E+03  4.67368E+00  7.29735E-03  2.48496E-01
       1    -1     0     0   512     0  0.000000000E+00  0.000000000E+00  4.051614745E+03  4.051614745E+03  0.000000000E+00  0.00000E+00  9.000E+00
      21    -1     0     0   511   514  0.000000000E+00  0.000000000E+00 -4.531503616E+02  4.531503616E+02  0.000000000E+00  0.00000E+00  9.000E+00
       1     1     1     2   511     0 -1.927434943E+02  5.468703081E+02  3.759418764E+03  3.803872583E+03  4.315837288E-05  0.00000E+00  9.000E+00
      21     1     1     2   512   514  1.917577637E+02 -5.555944942E+02 -2.301004177E+02  6.311913214E+02  1.549537354E-05  0.00000E+00  9.000E+00
      22     1     1     2     0     0  9.857305814E-01  8.724186108E+00  6.914603722E+01  6.970120194E+01  9.536743164E-07  0.00000E+00  9.000E+00
#rwgt            1         181   1.0052139378237393E-003       28582       36427           0
<weights>
0.62326E+02
0.44894E+02
0.88893E+02
0.52435E+02
0.75078E+02
0.53363E+02
0.73794E+02
</weights>
<scales uborns=' 0.437223797E+03'> </scales>
</event>
<event>
      5  10001  1.53377E+06  1.30122E+02  7.29735E-03  1.18894E-01
       2    -1     0     0   511     0  0.000000000E+00  0.000000000E+00  1.306129072E+03  1.306129072E+03  0.000000000E+00  0.00000E+00  9.000E+00
      21    -1     0     0   513   515  0.000000000E+00  0.000000000E+00 -1.223044420E+02  1.223044420E+02  0.000000000E+00  0.00000E+00  9.000E+00
       2     1     1     2   513     0  4.560165959E+01  6.762608767E+01  3.310959170E+02  3.409945826E+02  8.529922400E-06  0.00000E+00  9.000E+00
      21     1     1     2   511   515 -1.503743630E+02 -1.112975236E+02 -3.682560243E+01  1.906717409E+02  0.000000000E+00  0.00000E+00  9.000E+00
      22     1     1     2     0     0  1.047727034E+02  4.367143594E+01  8.895543158E+02  8.967671907E+02  1.078959322E-05  0.00000E+00  9.000E+00
#rwgt            1         182   1.3532797338124798E-002       28582       36794           0
<weights>
0.66497E+03
0.53036E+03
0.84776E+03
0.63428E+03
0.69585E+03
0.55603E+03
0.81014E+03
</weights>
<scales uborns=' 0.189174180E+03'> </scales>
</event>
<event>
      5  10001  1.91114E+01  6.65178E+02  7.29735E-03  9.54532E-02
       1    -1     0     0   513     0  0.000000000E+00  0.000000000E+00  2.977404347E+03  2.977404347E+03  0.000000000E+00  0.00000E+00  9.000E+00
       2    -1     0     0   512     0  0.000000000E+00  0.000000000E+00 -6.039162426E+02  6.039162426E+02  0.000000000E+00  0.00000E+00  9.000E+00
       1     1     1     2   512     0  7.849055450E+02 -9.173864654E+02  1.475882510E+03  1.906804611E+03  3.051757812E-05  0.00000E+00  9.000E+00
       2     1     1     2   513     0 -7.069790094E+02  2.754075059E+02  3.944232207E+02  8.551247225E+02  2.854658040E-05  0.00000E+00  9.000E+00
      22     1     1     2     0     0 -7.792653552E+01  6.419789595E+02  5.031823743E+02  8.193912565E+02  2.224331625E-05  0.00000E+00  9.000E+00
#rwgt            1          96   4.8017046154659205E-004       28582       36904           0
<weights>
0.23711E-03
0.18476E-03
0.30999E-03
0.21297E-03
0.26591E-03
0.20570E-03
0.27642E-03
</weights>
<scales uborns=' 0.130547052E+04'> </scales>
</event>
<event>
      5  10001  5.20401E+05  1.03564E+01  7.29735E-03  1.94015E-01
       3    -1     0     0   512     0  0.000000000E+00  0.000000000E+00  1.801702691E+03  1.801702691E+03  0.000000000E+00  0.00000E+00  9.000E+00
      21    -1     0     0   511   514  0.000000000E+00  0.000000000E+00 -3.351818112E+01  3.351818112E+01  0.000000000E+00  0.00000E+00  9.000E+00
       3     1     1     2   511     0 -7.713632062E+01 -1.822169500E+02  1.084840020E+03  1.102737910E+03  0.000000000E+00  0.00000E+00  9.000E+00
      21     1     1     2   512   514  7.859475467E+01  2.118336694E+02  5.276604671E+02  5.740001807E+02  7.629394531E-06  0.00000E+00  9.000E+00
      22     1     1     2     0     0 -1.458434051E+00 -2.961671936E+01  1.556840234E+02  1.584827821E+02  0.000000000E+00  0.00000E+00  9.000E+00
#rwgt            1         183   3.9485381804286584E-004       28582       37813           0
<weights>
0.13274E+05
0.10970E+05
0.16245E+05
0.13064E+05
0.13404E+05
0.11147E+05
0.16088E+05
</weights>
<scales uborns=' 0.130547052E+04'> </scales>
</event>
<event>
      5  10001  1.03969E+03  1.25113E+02  7.29735E-03  1.19604E-01
       2    -1     0     0   511     0  0.000000000E+00  0.000000000E+00  2.028034723E+03  2.028034723E+03  0.000000000E+00  0.00000E+00  9.000E+00
       1    -1     0     0   513     0  0.000000000E+00  0.000000000E+00 -4.264946587E+02  4.264946587E+02  0.000000000E+00  0.00000E+00  9.000E+00
      22     1     1     2     0     0 -2.928973666E+01  3.829774735E+02  8.985499838E+02  9.772009554E+02  1.078959322E-05  0.00000E+00  9.000E+00
       1     1     1     2   511     0  1.485958546E+02 -6.247919059E+02 -8.189247615E+01  6.474195172E+02  9.678737226E-06  0.00000E+00  9.000E+00
       2     1     1     2   513     0 -1.193061179E+02  2.418144323E+02  7.848825563E+02  8.299089086E+02  1.078959322E-05  0.00000E+00  9.000E+00
#rwgt            1          92   1.2738788598357861E-003       28582       38091           0
<weights>
0.54626E+00
0.43612E+00
0.69642E+00
0.50851E+00
0.58937E+00
0.46849E+00
0.64548E+00
</weights>
<scales uborns=' 0.645813569E+03'> </scales>
</event>
<event>
      5  10001  7.65352E+04  1.07218E+01  7.29735E-03  1.92322E-01
      21    -1     0     0   512   513  0.000000000E+00  0.000000000E+00  5.299272994E+01  5.299272994E+01  0.000000000E+00  0.00000E+00  9.000E+00
       2    -1     0     0   514     0  0.000000000E+00  0.000000000E+00 -2.279907101E+03  2.279907101E+03  0.000000000E+00  0.00000E+00  9.000E+00
       2     1     1     2   512     0  1.087346064E+02 -2.776906003E+02 -1.500891539E+03  1.530232236E+03  2.157918644E-05  0.00000E+00  9.000E+00
      21     1     1     2   514   513 -1.115614972E+02  2.905693742E+02 -5.997153511E+02  6.756737609E+02  1.078959322E-05  0.00000E+00  9.000E+00
      22     1     1     2     0     0  2.826890771E+00 -1.287877395E+01 -1.263074817E+02  1.269938347E+02  2.697398305E-06  0.00000E+00  9.000E+00
#rwgt            1         187   2.4776039989510338E-002       28582       39635           0
<weights>
0.42594E+04
0.34211E+04
0.53808E+04
0.40454E+04
0.44779E+04
0.36021E+04
0.51182E+04
</weights>
<scales uborns=' 0.645813569E+03'> </scales>
</event>
<event>
      4  10001  3.91821E+05  8.94427E-01  7.29735E-03  7.52006E-01
       1    -1     0     0   515     0  0.000000000E+00  0.000000000E+00  1.487302208E+03  1.487302208E+03  0.000000000E+00  0.00000E+00  9.000E+00
      21    -1     0     0   512   515  0.000000000E+00  0.000000000E+00 -3.734910108E+02  3.734910108E+02  0.000000000E+00  0.00000E+00  9.000E+00
       1     1     1     2   511     0  2.639090594E+01 -2.361707003E+02  1.438741568E+03  1.458235365E+03  4.037096117E-05  0.00000E+00  9.000E+00
      21     1     1     2   512   511 -2.639090594E+01  2.361707003E+02 -3.249303711E+02  4.025578538E+02  0.000000000E+00  0.00000E+00  9.000E+00
#rwgt            1         181   5.2846757112118004E-003       28582       40956           0
<weights>
0.68702E+06
0.51926E+06
0.93114E+06
0.61769E+06
0.76929E+06
0.57754E+06
0.83156E+06
</weights>
<scales uborns=' 0.645813569E+03'> </scales>
</event>
<event>
      5  10001  1.56696E+00  2.34909E+02  7.29735E-03  1.09162E-01
       2    -1     0     0   511     0  0.000000000E+00  0.000000000E+00  1.919883193E+03  1.919883193E+03  0.000000000E+00  0.00000E+00  9.000E+00
       2    -1     0     0   513     0  0.000000000E+00  0.000000000E+00 -3.240262211E+03  3.240262211E+03  0.000000000E+00  0.00000E+00  9.000E+00
       2     1     1     2   513     0  2.246076667E+03 -1.597467916E+02  1.837943588E+02  2.259238765E+03  3.547873542E-05  0.00000E+00  9.000E+00
       2     1     1     2   511     0 -2.013454325E+03  1.924442025E+02 -8.288077078E+02  2.185853451E+03  4.178791485E-05  0.00000E+00  9.000E+00
      22     1     1     2     0     0 -2.326223413E+02 -3.269741086E+01 -6.753656695E+02  7.150531881E+02  1.078959322E-05  0.00000E+00  9.000E+00
#rwgt            1          97   2.9250654234513622E-003       28582       41488           0
<weights>
0.50047E-01
0.39121E-01
0.65166E-01
0.44778E-01
0.56359E-01
0.43724E-01
0.57868E-01
</weights>
<scales uborns=' 0.213413082E+04'> </scales>
</event>
<event>
      5  10001  5.23775E+01  8.19806E+00  7.29735E-03  2.06291E-01
      21    -1     0     0   513   514  0.000000000E+00  0.000000000E+00  1.336176269E+03  1.336176269E+03  0.000000000E+00  0.00000E+00  9.000E+00
      -1    -1     0     0     0   512  0.000000000E+00  0.000000000E+00 -1.521257469E+03  1.521257469E+03  0.000000000E+00  0.00000E+00  9.000E+00
      22     1     1     2     0     0  4.761824769E+02 -1.184410856E+01 -4.407332921E+02  6.489498201E+02  1.078959322E-05  0.00000E+00  9.000E+00
      21     1     1     2   513   512 -1.086842245E+03  2.543555891E+01  8.317724155E+02  1.368838334E+03  3.236877966E-05  0.00000E+00  9.000E+00
      -1     1     1     2     0   514  6.106597678E+02 -1.359145035E+01 -5.761203238E+02  8.396455842E+02  3.051757812E-05  0.00000E+00  9.000E+00
#rwgt            1         196   2.5321668105403143E-004       28582       42955           0
<weights>
0.22894E+01
0.17063E+01
0.31447E+01
0.19723E+01
0.26887E+01
0.19806E+01
0.26777E+01
</weights>
<scales uborns=' 0.213413082E+04'> </scales>
</event>
<event>
      5  10001  5.47268E+02  3.87507E+02  7.29735E-03  1.02102E-01
       2    -1     0     0   512     0  0.000000000E+00  0.000000000E+00  6.898315627E+02  6.898315627E+02  0.000000000E+00  0.00000E+00  9.000E+00
      21    -1     0     0   515   512  0.000000000E+00  0.000000000E+00 -1.111496348E+03  1.111496348E+03  0.000000000E+00  0.00000E+00  9.000E+00
      22     1     1     2     0     0  2.262779871E+00  6.089620046E+00  8.258979694E+00  1.050782521E+01  1.192092896E-07  0.00000E+00  9.000E+00
      21     1     1     2   515   511 -3.507513191E+02 -6.292898403E+02 -7.214600891E+02  1.019576800E+03  7.629394531E-06  0.00000E+00  9.000E+00
       2     1     1     2   511     0  3.484885393E+02  6.232002202E+02  2.915363244E+02  7.712432852E+02  1.321449896E-05  0.00000E+00  9.000E+00
#rwgt            1         182   2.3744099001301406E-003       28582       43116           0
<weights>
0.39994E+00
0.31119E+00
0.52434E+00
0.36215E+00
0.44475E+00
0.34366E+00
0.47151E+00
</weights>
<scales uborns=' 0.720962013E+03'> </scales>
</event>
<event>
      5  10001  7.34793E+01  7.96647E+01  7.29735E-03  1.28438E-01
      21    -1     0     0   511   514  0.000000000E+00  0.000000000E+00  1.617656082E+03  1.617656082E+03  0.000000000E+00  0.00000E+00  9.000E+00
      -3    -1     0     0     0   513  0.000000000E+00  0.000000000E+00 -6.758113893E+02  6.758113893E+02  0.000000000E+00  0.00000E+00  9.000E+00
      -3     1     1     2     0   514 -7.702331791E+02 -1.879721317E+02  2.168898861E+02  8.219695221E+02  2.397500055E-05  0.00000E+00  9.000E+00
      21     1     1     2   511   513  1.003186622E+03  1.767702233E+02  7.020869453E+02  1.237156898E+03  1.525878906E-05  0.00000E+00  9.000E+00
      22     1     1     2     0     0 -2.329534432E+02  1.120190842E+01  2.286786185E+01  2.343410518E+02  5.113508842E-06  0.00000E+00  9.000E+00
#rwgt            1         198   1.6595439141485797E-004       28582       43366           0
<weights>
0.71875E-01
0.55370E-01
0.95093E-01
0.64065E-01
0.81211E-01
0.62120E-01
0.84161E-01
</weights>
<scales uborns=' 0.102348128E+04'> </scales>
</event>
<event>
      4  10001  1.13431E+02  8.94427E-01  7.29735E-03  7.52631E-01
      21    -1     0     0   512   514  0.000000000E+00  0.000000000E+00  2.701628500E+02  2.701628500E+02  0.000000000E+00  0.00000E+00  9.000E+00
       3    -1     0     0   515     0  0.000000000E+00  0.000000000E+00 -3.331339985E+03  3.331339985E+03  0.000000000E+00  0.00000E+00  9.000E+00
       3     1     1     2   512     0 -7.144853733E+02 -6.228589563E+02 -1.455577208E+03  1.736993851E+03  0.000000000E+00  0.00000E+00  9.000E+00
      21     1     1     2   515   514  7.144853733E+02  6.228589563E+02 -1.605599927E+03  1.864508984E+03  3.051757812E-05  0.00000E+00  9.000E+00
#rwgt            1         188   4.6754371989155881E-004       28582       43460           0
<weights>
0.67748E+03
0.52485E+03
0.89062E+03
0.60802E+03
0.75951E+03
0.58482E+03
0.79444E+03
</weights>
<scales uborns=' 0.102348128E+04'> </scales>
</event>
<event>
      5  10001  1.30844E+02  1.19139E+02  7.29735E-03  1.20501E-01
       2    -1     0     0   513     0  0.000000000E+00  0.000000000E+00  1.629409162E+03  1.629409162E+03  0.000000000E+00  0.00000E+00  9.000E+00
      21    -1     0     0   511   512  0.000000000E+00  0.000000000E+00 -6.926869173E+02  6.926869173E+02  0.000000000E+00  0.00000E+00  9.000E+00
       2     1     1     2   511     0 -6.701934819E+02  4.878064419E+02  1.033610043E+03  1.324939300E+03  0.000000000E+00  0.00000E+00  9.000E+00
      21     1     1     2   513   512  7.635769610E+02 -4.691932373E+02 -1.007695165E+02  9.018572863E+02  1.440016639E-05  0.00000E+00  9.000E+00
      22     1     1     2     0     0 -9.338347909E+01 -1.861320457E+01  3.881717739E+00  9.529949257E+01  2.045750892E-06  0.00000E+00  9.000E+00
#rwgt            1         182   7.9337485980180179E-003       28582       44055           0
<weights>
0.36667E+00
0.28423E+00
0.48229E+00
0.32940E+00
0.41110E+00
0.31639E+00
0.43018E+00
</weights>
<scales uborns=' 0.924361759E+03'> </scales>
</event>
<event>
      5  10001  1.93945E+03  1.23662E+01  7.29735E-03  1.85666E-01
      -2    -1     0     0     0   514  0.000000000E+00  0.000000000E+00  6.557208863E+02  6.557208863E+02  0.000000000E+00  0.00000E+00  9.000E+00
      21    -1     0     0   515   512  0.000000000E+00  0.000000000E+00 -5.799953405E+02  5.799953405E+02  0.000000000E+00  0.00000E+00  9.000E+00
      -2     1     1     2     0   512  2.711641373E+02 -5.073885635E+02 -1.389176883E+02  5.918371971E+02  7.864199878E-06  0.00000E+00  9.000E+00
      21     1     1     2   515   514 -2.816367595E+02  5.139647647E+02  1.896469091E+02  6.159910663E+02  1.748113897E-05  0.00000E+00  9.000E+00
      22     1     1     2     0     0  1.047262221E+01 -6.576201175E+00  2.499632498E+01  2.788796336E+01  0.000000000E+00  0.00000E+00  9.000E+00
#rwgt            1         192   2.4731042670976706E-004       28582       44490           0
<weights>
0.91226E+02
0.71538E+02
0.11852E+03
0.83571E+02
0.10007E+03
0.78090E+02
0.10804E+03
</weights>
<scales uborns=' 0.580655676E+03'> </scales>
</event>
<event>
      5  10001  6.34900E+01  2.01821E+02  7.29735E-03  1.11505E-01
       2    -1     0     0   511     0  0.000000000E+00  0.000000000E+00  4.447813975E+03  4.447813975E+03  0.000000000E+00  0.00000E+00  9.000E+00
       2    -1     0     0   513     0  0.000000000E+00  0.000000000E+00 -6.752903603E+02  6.752903603E+02  0.000000000E+00  0.00000E+00  9.000E+00
       2     1     1     2   511     0 -7.643951515E+02  6.065270478E+02  2.325988316E+02  1.003133702E+03  2.710851746E-05  0.00000E+00  9.000E+00
       2     1     1     2   513     0  7.989803022E+02 -8.053622760E+02  8.376997630E+02  1.410219420E+03  3.051757812E-05  0.00000E+00  9.000E+00
      22     1     1     2     0     0 -3.458515067E+01  1.988352282E+02  2.702225020E+03  2.709751214E+03  3.051757812E-05  0.00000E+00  9.000E+00
#rwgt            1          97   1.7013453766450684E-003       28582       44609           0
<weights>
0.16749E+01
0.13577E+01
0.20988E+01
0.15702E+01
0.17933E+01
0.14482E+01
0.19602E+01
</weights>
<scales uborns=' 0.105043042E+04'> </scales>
</event>
<event>
      5  10001  3.50417E+00  1.61358E+01  7.29735E-03  1.74448E-01
       1    -1     0     0   511     0  0.000000000E+00  0.000000000E+00  2.747123581E+03  2.747123581E+03  0.000000000E+00  0.00000E+00  9.000E+00
       2    -1     0     0   512     0  0.000000000E+00  0.000000000E+00 -1.386970647E+03  1.386970647E+03  0.000000000E+00  0.00000E+00  9.000E+00
       1     1     1     2   512     0 -9.594562081E+02  1.538119677E+03  1.431739005E+03  2.310031371E+03  5.285799584E-05  0.00000E+00  9.000E+00
       2     1     1     2   511     0  9.440614233E+02 -1.533285984E+03 -5.578659355E+01  1.801479954E+03  5.760461283E-05  0.00000E+00  9.000E+00
      22     1     1     2     0     0  1.539478483E+01 -4.833692923E+00 -1.579947774E+01  2.258290247E+01  0.000000000E+00  0.00000E+00  9.000E+00
#rwgt            1          96   1.4193724001632193E-003       28582       45368           0
<weights>
0.59513E+00
0.46047E+00
0.78359E+00
0.52827E+00
0.67587E+00
0.51874E+00
0.68997E+00
</weights>
<scales uborns=' 0.180670849E+04'> </scales>
</event>
<event>
      5  10001  5.43336E+00  4.89508E+02  7.29735E-03  9.91143E-02
       1    -1     0     0   512     0  0.000000000E+00  0.000000000E+00  2.329189224E+03  2.329189224E+03  0.000000000E+00  0.00000E+00  9.000E+00
       2    -1     0     0   513     0  0.000000000E+00  0.000000000E+00 -2.242746926E+03  2.242746926E+03  0.000000000E+00  0.00000E+00  9.000E+00
       1     1     1     2   513     0 -5.973498235E+02  1.494953481E+03  1.572649368E+03  2.250541881E+03  2.157918644E-05  0.00000E+00  9.000E+00
       2     1     1     2   512     0  5.151197517E+02 -1.324179707E+03 -8.458178014E+02  1.653544075E+03  1.868812365E-05  0.00000E+00  9.000E+00
      22     1     1     2     0     0  8.223007188E+01 -1.707737744E+02 -6.403892689E+02  6.678501946E+02  0.000000000E+00  0.00000E+00  9.000E+00
#rwgt            1          96   3.5529980263415917E-002       28582       51627           0
<weights>
0.85959E-04
0.65690E-04
0.11472E-03
0.75456E-04
0.98811E-04
0.74834E-04
0.99800E-04
</weights>
<scales uborns=' 0.165652267E+04'> </scales>
</event>
<event>
      5  10001  1.77584E+03  2.06944E+00  7.29735E-03  3.56293E-01
      21    -1     0     0   511   513  0.000000000E+00  0.000000000E+00  1.315936305E+02  1.315936305E+02  0.000000000E+00  0.00000E+00  9.000E+00
       2    -1     0     0   514     0  0.000000000E+00  0.000000000E+00 -4.777611732E+03  4.777611732E+03  0.000000000E+00  0.00000E+00  9.000E+00
       2     1     1     2   511     0 -5.884479231E+02  4.401555878E+01 -3.660036171E+03  3.707299975E+03  6.103515625E-05  0.00000E+00  9.000E+00
      21     1     1     2   514   513  5.870138285E+02 -4.550752839E+01 -6.947985832E+02  9.107146870E+02  2.954851796E-05  0.00000E+00  9.000E+00
      22     1     1     2     0     0  1.434094562E+00  1.491969615E+00 -2.911833466E+02  2.911907003E+02  0.000000000E+00  0.00000E+00  9.000E+00
#rwgt            1         187   1.4606450438162742E-002       28582       54068           0
<weights>
0.21237E+03
0.15901E+03
0.28985E+03
0.18571E+03
0.24482E+03
0.18184E+03
0.25143E+03
</weights>
<scales uborns=' 0.589432713E+03'> </scales>
</event>
<event>
      5  10001  2.86954E+06  1.44011E+01  7.29735E-03  1.79067E-01
       2    -1     0     0   515     0  0.000000000E+00  0.000000000E+00  3.287290665E+03  3.287290665E+03  0.000000000E+00  0.00000E+00  9.000E+00
      21    -1     0     0   512   511  0.000000000E+00  0.000000000E+00 -2.631673783E+01  2.631673783E+01  0.000000000E+00  0.00000E+00  9.000E+00
      22     1     1     2     0     0 -1.233427783E+02 -3.242230285E+01  2.059628301E+03  2.063572966E+03  0.000000000E+00  0.00000E+00  9.000E+00
      21     1     1     2   515   511  1.637936228E+02  4.605176105E+01  2.795930719E+02  3.272940595E+02  3.814697266E-06  0.00000E+00  9.000E+00
       2     1     1     2   512     0 -4.045084452E+01 -1.362945820E+01  9.217525548E+02  9.227403780E+02  1.868812365E-05  0.00000E+00  9.000E+00
#rwgt            1         182   3.4403599134184969E-002       28582       58379           0
<weights>
0.12211E+06
0.96156E+05
0.15756E+06
0.11529E+06
0.12892E+06
0.10184E+06
0.14924E+06
</weights>
<scales uborns=' 0.589432713E+03'> </scales>
</event>
<event>
      5  10001  9.31498E+04  1.29758E+01  7.29735E-03  1.83527E-01
       2    -1     0     0   511     0  0.000000000E+00  0.000000000E+00  7.259776481E+02  7.259776481E+02  0.000000000E+00  0.00000E+00  9.000E+00
      21    -1     0     0   513   514  0.000000000E+00  0.000000000E+00 -2.021093490E+02  2.021093490E+02  0.000000000E+00  0.00000E+00  9.000E+00
       2     1     1     2   513     0  2.887334681E+02 -2.921311052E-01  5.134115821E+02  5.890318782E+02  0.000000000E+00  0.00000E+00  9.000E+00
      21     1     1     2   511   514 -3.006191572E+02  1.176584664E+01 -2.301521137E+01  3.017283758E+02  3.693564745E-06  0.00000E+00  9.000E+00
      22     1     1     2     0     0  1.188568908E+01 -1.147371554E+01  3.347192842E+01  3.732674303E+01  8.259061849E-07  0.00000E+00  9.000E+00
#rwgt            1         182   7.1167087712161563E-003       28582       59288           0
<weights>
0.54558E+02
0.44097E+02
0.68560E+02
0.52179E+02
0.57007E+02
0.46107E+02
0.65614E+02
</weights>
<scales uborns=' 0.302256933E+03'> </scales>
</event>
<event>
      4  10001  3.27078E+09  8.94427E-01  7.29735E-03  7.43131E-01
      21    -1     0     0   512   513  0.000000000E+00  0.000000000E+00  1.950442057E+01  1.950442057E+01  0.000000000E+00  0.00000E+00  9.000E+00
       3    -1     0     0   515     0  0.000000000E+00  0.000000000E+00 -1.426357692E+02  1.426357692E+02  0.000000000E+00  0.00000E+00  9.000E+00
       3     1     1     2   512     0 -2.076625817E+01  4.840817508E+01 -6.575786674E+01  8.425369981E+01  1.348699152E-06  0.00000E+00  9.000E+00
      21     1     1     2   515   513  2.076625817E+01 -4.840817508E+01 -5.737348185E+01  7.788648993E+01  9.536743164E-07  0.00000E+00  9.000E+00
#rwgt            1         188   6.7234593195816578E-004       28582       59958           0
<weights>
0.42176E+10
0.38407E+10
0.45737E+10
0.47692E+10
0.35807E+10
0.33965E+10
0.53872E+10
</weights>
<scales uborns=' 0.302256933E+03'> </scales>
</event>
<event>
      4  10001  5.74199E+02  8.94427E-01  7.29735E-03  7.45299E-01
       1    -1     0     0   514     0  0.000000000E+00  0.000000000E+00  2.199231388E+03  2.199231388E+03  0.000000000E+00  0.00000E+00  9.000E+00
      21    -1     0     0   512   514  0.000000000E+00  0.000000000E+00 -1.659046519E+03  1.659046519E+03  0.000000000E+00  0.00000E+00  9.000E+00
       1     1     1     2   511     0 -5.712778113E+02 -4.300085055E+02  2.058971778E+03  2.179594099E+03  3.051757812E-05  0.00000E+00  9.000E+00
      21     1     1     2   512   511  5.712778113E+02  4.300085055E+02 -1.518786909E+03  1.678683808E+03  3.051757812E-05  0.00000E+00  9.000E+00
#rwgt            1         181   3.2157198376716861E-003       28582       60111           0
<weights>
0.10411E+04
0.75053E+03
0.14839E+04
0.87357E+03
0.12585E+04
0.89450E+03
0.12277E+04
</weights>
<scales uborns=' 0.302256933E+03'> </scales>
</event>
<event>
      5  10001  2.38015E+02  1.39393E+02  7.29735E-03  1.17670E-01
       2    -1     0     0   511     0  0.000000000E+00  0.000000000E+00  2.670690543E+03  2.670690543E+03  0.000000000E+00  0.00000E+00  9.000E+00
      21    -1     0     0   513   514  0.000000000E+00  0.000000000E+00 -3.455922980E+02  3.455922980E+02  0.000000000E+00  0.00000E+00  9.000E+00
       2     1     1     2   513     0  7.861993765E+02  4.475654750E+02  6.583472938E+02  1.118859005E+03  2.412626389E-05  0.00000E+00  9.000E+00
      21     1     1     2   511   514 -6.709373939E+02 -3.691755676E+02  1.368190870E+03  1.567926606E+03  2.642899792E-05  0.00000E+00  9.000E+00
      22     1     1     2     0     0 -1.152619826E+02 -7.838990739E+01  2.985600814E+02  3.294972298E+02  0.000000000E+00  0.00000E+00  9.000E+00
#rwgt            1         182   4.5952090000979324E-003       28582       60653           0
<weights>
0.61814E+01
0.47989E+01
0.81142E+01
0.55711E+01
0.69024E+01
0.53246E+01
0.72667E+01
</weights>
<scales uborns=' 0.832619528E+03'> </scales>
</event>
<event>
      5  10001  9.31243E+00  1.11302E+03  7.29735E-03  8.98886E-02
       1    -1     0     0   513     0  0.000000000E+00  0.000000000E+00  1.050015912E+03  1.050015912E+03  0.000000000E+00  0.00000E+00  9.000E+00
      21    -1     0     0   512   515  0.000000000E+00  0.000000000E+00 -2.631724755E+03  2.631724755E+03  0.000000000E+00  0.00000E+00  9.000E+00
      22     1     1     2     0     0  1.776771583E+02 -5.281597397E+02  5.172600506E+02  7.603156207E+02  1.078959322E-05  0.00000E+00  9.000E+00
      21     1     1     2   513   515 -2.244336214E+01  1.271377744E+03 -1.361994771E+03  1.863312864E+03  2.157918644E-05  0.00000E+00  9.000E+00
       1     1     1     2   512     0 -1.552337961E+02 -7.432180039E+02 -7.369741230E+02  1.058112183E+03  1.078959322E-05  0.00000E+00  9.000E+00
#rwgt            1         181   6.7937461819167380E-004       28582       60832           0
<weights>
0.20746E+00
0.15241E+00
0.28955E+00
0.17534E+00
0.24896E+00
0.18034E+00
0.24128E+00
</weights>
<scales uborns=' 0.832619528E+03'> </scales>
</event>
<event>
      5  10001  6.46662E+02  2.42800E+00  7.29735E-03  3.27851E-01
      -2    -1     0     0     0   511  0.000000000E+00  0.000000000E+00  1.325647884E+03  1.325647884E+03  0.000000000E+00  0.00000E+00  9.000E+00
      21    -1     0     0   514   513  0.000000000E+00  0.000000000E+00 -4.816865681E+02  4.816865681E+02  0.000000000E+00  0.00000E+00  9.000E+00
      -2     1     1     2     0   513  6.810345772E+02 -1.693662990E+02  8.408775978E+02  1.095247996E+03  2.157918644E-05  0.00000E+00  9.000E+00
      21     1     1     2   514   511 -6.787506100E+02  1.685424938E+02 -9.342097255E+00  6.994256484E+02  1.278321628E-05  0.00000E+00  9.000E+00
      22     1     1     2     0     0 -2.283967213E+00  8.238051913E-01  1.242581530E+01  1.266080752E+01  1.685873940E-07  0.00000E+00  9.000E+00
#rwgt            1         192   4.2348726879477415E-004       28582       60906           0
<weights>
0.41347E+02
0.31978E+02
0.54515E+02
0.37233E+02
0.46213E+02
0.35511E+02
0.48775E+02
</weights>
<scales uborns=' 0.700570050E+03'> </scales>
</event>
<event>
      5  10001  1.27922E+02  3.28588E+01  7.29735E-03  1.50344E-01
      21    -1     0     0   512   515  0.000000000E+00  0.000000000E+00  3.053699837E+02  3.053699837E+02  0.000000000E+00  0.00000E+00  9.000E+00
       2    -1     0     0   511     0  0.000000000E+00  0.000000000E+00 -4.298726020E+03  4.298726020E+03  0.000000000E+00  0.00000E+00  9.000E+00
       2     1     1     2   512     0  2.929383348E+02  8.634198111E+02 -3.231537376E+03  3.357698683E+03  6.103515625E-05  0.00000E+00  9.000E+00
      21     1     1     2   511   515 -3.060797604E+02 -8.935363331E+02 -6.973850363E+02  1.174068945E+03  2.954851796E-05  0.00000E+00  9.000E+00
      22     1     1     2     0     0  1.314142562E+01  3.011652192E+01 -6.443362446E+01  7.232837562E+01  9.536743164E-07  0.00000E+00  9.000E+00
#rwgt            1         187   3.4194466874722294E-002       28582       61309           0
<weights>
0.51739E+01
0.38538E+01
0.71021E+01
0.44660E+01
0.60542E+01
0.44647E+01
0.60695E+01
</weights>
<scales uborns=' 0.928034638E+03'> </scales>
</event>
<event>
      5  10001  2.50527E+04  4.63769E+00  7.29735E-03  2.49197E-01
      21    -1     0     0   514   511  0.000000000E+00  0.000000000E+00  3.335448332E+02  3.335448332E+02  0.000000000E+00  0.00000E+00  9.000E+00
      -2    -1     0     0     0   513  0.000000000E+00  0.000000000E+00 -4.260936802E+02  4.260936802E+02  0.000000000E+00  0.00000E+00  9.000E+00
      -2     1     1     2     0   511 -3.661912272E+01 -3.670055596E+02 -5.267342803E+01  3.725701691E+02  1.106015540E-05  0.00000E+00  9.000E+00
      21     1     1     2   514   513  3.808580632E+01  3.742638712E+02 -3.421838874E+01  3.777497479E+02  3.873843386E-06  0.00000E+00  9.000E+00
      22     1     1     2     0     0 -1.466683606E+00 -7.258311569E+00 -5.657030228E+00  9.318596387E+00  8.429369702E-08  0.00000E+00  9.000E+00
#rwgt            1         197   6.5273775580305319E-004       28582       62271           0
<weights>
0.27914E+04
0.22323E+04
0.35487E+04
0.26295E+04
0.29670E+04
0.23698E+04
0.33386E+04
</weights>
<scales uborns=' 0.928034638E+03'> </scales>
</event>
<event>
      5  10001  9.24548E+01  3.32062E+02  7.29735E-03  1.04179E-01
      21    -1     0     0   512   511  0.000000000E+00  0.000000000E+00  8.085942716E+02  8.085942716E+02  0.000000000E+00  0.00000E+00  9.000E+00
       2    -1     0     0   515     0  0.000000000E+00  0.000000000E+00 -1.679593026E+03  1.679593026E+03  0.000000000E+00  0.00000E+00  9.000E+00
       2     1     1     2   512     0  1.230735472E+02 -7.523584451E+02 -8.704525249E+02  1.157098927E+03  2.157918644E-05  0.00000E+00  9.000E+00
      21     1     1     2   515   511 -4.228705860E+02  8.241878322E+02  2.199181324E+02  9.520867084E+02  1.144409180E-05  0.00000E+00  9.000E+00
      22     1     1     2     0     0  2.997970388E+02 -7.182938710E+01 -2.204643616E+02  3.790016624E+02  2.697398305E-06  0.00000E+00  9.000E+00
#rwgt            1         187   1.0076115113933849E-002       28582       62682           0
<weights>
0.82268E-01
0.63477E-01
0.10876E+00
0.73493E-01
0.92810E-01
0.71056E-01
0.96404E-01
</weights>
<scales uborns=' 0.982668536E+03'> </scales>
</event>
<event>
      5  10001  3.66123E+01  3.06313E+01  7.29735E-03  1.52414E-01
       2    -1     0     0   514     0  0.000000000E+00  0.000000000E+00  1.283708667E+03  1.283708667E+03  0.000000000E+00  0.00000E+00  9.000E+00
      21    -1     0     0   513   512  0.000000000E+00  0.000000000E+00 -1.449200575E+03  1.449200575E+03  0.000000000E+00  0.00000E+00  9.000E+00
       2     1     1     2   513     0 -4.817262458E+02 -1.060666853E+03  1.964702098E+02  1.181386851E+03  2.442598052E-05  0.00000E+00  9.000E+00
      21     1     1     2   514   512  4.511403423E+02  1.062334406E+03 -6.073657921E+02  1.304214401E+03  4.108554693E-05  0.00000E+00  9.000E+00
      22     1     1     2     0     0  3.058590345E+01 -1.667553540E+00  2.454036744E+02  2.473079895E+02  0.000000000E+00  0.00000E+00  9.000E+00
#rwgt            1         182   4.0574474507694639E-003       28582       63133           0
<weights>
0.31467E+01
0.24237E+01
0.41683E+01
0.27989E+01
0.35680E+01
0.27249E+01
0.36761E+01
</weights>
<scales uborns=' 0.115944712E+04'> </scales>
</event>
<event>
      5  10001  1.03763E+04  1.54024E+00  7.29735E-03  4.25904E-01
      21    -1     0     0   513   515  0.000000000E+00  0.000000000E+00  3.940693300E+02  3.940693300E+02  0.000000000E+00  0.00000E+00  9.000E+00
       2    -1     0     0   515     0  0.000000000E+00  0.000000000E+00 -1.932224158E+03  1.932224158E+03  0.000000000E+00  0.00000E+00  9.000E+00
       2     1     1     2   511     0 -3.894433431E+01 -4.324400121E+02 -1.762431436E+03  1.815126880E+03  2.157918644E-05  0.00000E+00  9.000E+00
      21     1     1     2   513   511  4.067698022E+01  4.351512093E+02  2.376011825E+02  4.974590572E+02  9.725607898E-06  0.00000E+00  9.000E+00
      22     1     1     2     0     0 -1.732645909E+00 -2.711197181E+00 -1.332457523E+01  1.370755110E+01  1.685873940E-07  0.00000E+00  9.000E+00
#rwgt            1         187   1.6228082918822974E-002       28582       63901           0
<weights>
0.18266E+04
0.14015E+04
0.24323E+04
0.16459E+04
0.20408E+04
0.15553E+04
0.21770E+04
</weights>
<scales uborns=' 0.115944712E+04'> </scales>
</event>
<event>
      5  10001  3.03960E+04  1.32986E+02  7.29735E-03  1.18504E-01
       1    -1     0     0   512     0  0.000000000E+00  0.000000000E+00  5.708970713E+02  5.708970713E+02  0.000000000E+00  0.00000E+00  9.000E+00
      -4    -1     0     0     0   512  0.000000000E+00  0.000000000E+00 -2.523982546E+02  2.523982546E+02  0.000000000E+00  0.00000E+00  9.000E+00
       1     1     1     2   513     0  2.422512650E+00  1.962201881E+02  2.471477728E+02  3.155792331E+02  6.031565972E-06  0.00000E+00  9.000E+00
      -4     1     1     2     0   513  3.535297415E+01 -3.461165767E+02  4.317288376E+01  3.505858174E+02  4.317944116E-06  0.00000E+00  9.000E+00
      22     1     1     2     0     0 -3.777548681E+01  1.498963886E+02  2.817816013E+01  1.571302753E+02  5.488807885E-06  0.00000E+00  9.000E+00
#rwgt            1         143   4.1564032807073610E-005       28582       69057           0
<weights>
0.15144E+02
0.12937E+02
0.17839E+02
0.15248E+02
0.14903E+02
0.12849E+02
0.18128E+02
</weights>
<scales uborns=' 0.364753128E+03'> </scales>
</event>
<event>
      5  10001  4.62669E+02  7.00910E+00  7.29735E-03  2.15474E-01
       2    -1     0     0   512     0  0.000000000E+00  0.000000000E+00  1.809901173E+03  1.809901173E+03  0.000000000E+00  0.00000E+00  9.000E+00
      21    -1     0     0   513   512  0.000000000E+00  0.000000000E+00 -3.384060704E+02  3.384060704E+02  0.000000000E+00  0.00000E+00  9.000E+00
       2     1     1     2   511     0  5.129935578E+02  4.171806335E+02  9.663405176E+02  1.170903953E+03  1.868812365E-05  0.00000E+00  9.000E+00
      21     1     1     2   513   511 -5.790890394E+02 -4.639113745E+02  3.946427948E+02  8.404170479E+02  1.427329020E-05  0.00000E+00  9.000E+00
      22     1     1     2     0     0  6.609548156E+01  4.673074096E+01  1.105117898E+02  1.369862421E+02  1.348699152E-06  0.00000E+00  9.000E+00
#rwgt            1         182   9.6726149849392547E-003       28582       69138           0
<weights>
0.88305E+00
0.69248E+00
0.11467E+01
0.80548E+00
0.97324E+00
0.75917E+00
0.10405E+01
</weights>
<scales uborns=' 0.742119462E+03'> </scales>
</event>
<event>
      5  10001  1.24856E+03  1.26326E+01  7.29735E-03  1.84712E-01
      21    -1     0     0   511   513  0.000000000E+00  0.000000000E+00  4.428329599E+02  4.428329599E+02  0.000000000E+00  0.00000E+00  9.000E+00
      -1    -1     0     0     0   514  0.000000000E+00  0.000000000E+00 -1.214557236E+03  1.214557236E+03  0.000000000E+00  0.00000E+00  9.000E+00
      -1     1     1     2     0   513 -2.531142930E+02  5.722408408E+02 -2.343121754E+02  6.681531416E+02  1.427329020E-05  0.00000E+00  9.000E+00
      21     1     1     2   511   514  2.648016275E+02 -5.674461751E+02 -2.083652960E+02  6.599478465E+02  1.748113897E-05  0.00000E+00  9.000E+00
      22     1     1     2     0     0 -1.168733457E+01 -4.794665673E+00 -3.290468048E+02  3.292892078E+02  0.000000000E+00  0.00000E+00  9.000E+00
#rwgt            1         196   5.1035348965171974E-004       28582       70592           0
<weights>
0.24971E+02
0.19457E+02
0.32665E+02
0.22699E+02
0.27626E+02
0.21404E+02
0.29526E+02
</weights>
<scales uborns=' 0.625923952E+03'> </scales>
</event>
<event>
      5  10001  2.30445E+03  4.07299E+00  7.29735E-03  2.61633E-01
      21    -1     0     0   512   513  0.000000000E+00  0.000000000E+00  2.282803976E+02  2.282803976E+02  0.000000000E+00  0.00000E+00  9.000E+00
       3    -1     0     0   515     0  0.000000000E+00  0.000000000E+00 -1.535275131E+03  1.535275131E+03  0.000000000E+00  0.00000E+00  9.000E+00
       3     1     1     2   512     0 -5.632532335E+02 -3.678696179E+01 -8.094308380E+02  9.868058407E+02  0.000000000E+00  0.00000E+00  9.000E+00
      21     1     1     2   515   513  5.623449778E+02  3.281653025E+01 -4.289889573E+02  7.080538992E+02  1.945121580E-05  0.00000E+00  9.000E+00
      22     1     1     2     0     0  9.082557342E-01  3.970431534E+00 -6.857493835E+01  6.869578899E+01  1.348699152E-06  0.00000E+00  9.000E+00
#rwgt            1         188   4.0325183261225321E-004       28582       70737           0
<weights>
0.65924E+02
0.52146E+02
0.84792E+02
0.60950E+02
0.71551E+02
0.56402E+02
0.78124E+02
</weights>
<scales uborns=' 0.563873816E+03'> </scales>
</event>
<event>
      5  10001  1.50678E+03  2.23553E+01  7.29735E-03  1.62476E-01
      21    -1     0     0   511   514  0.000000000E+00  0.000000000E+00  1.447768957E+02  1.447768957E+02  0.000000000E+00  0.00000E+00  9.000E+00
       2    -1     0     0   512     0  0.000000000E+00  0.000000000E+00 -2.597038374E+03  2.597038374E+03  0.000000000E+00  0.00000E+00  9.000E+00
      22     1     1     2     0     0  1.863169510E+01  3.066580295E+01 -6.255886467E+01  7.211895092E+01  6.743495762E-07  0.00000E+00  9.000E+00
      21     1     1     2   512   514 -3.045391808E+02 -5.240983561E+02 -1.432862547E+03  1.555801491E+03  2.157918644E-05  0.00000E+00  9.000E+00
       2     1     1     2   511     0  2.859074857E+02  4.934325532E+02 -9.568400663E+02  1.113894828E+03  0.000000000E+00  0.00000E+00  9.000E+00
#rwgt            1         187   1.1229330484601230E-002       28582       70931           0
<weights>
0.57253E+03
0.44933E+03
0.74229E+03
0.52451E+03
0.62734E+03
0.49047E+03
0.67743E+03
</weights>
<scales uborns=' 0.563873816E+03'> </scales>
</event>
<event>
      5  10001  2.32020E+03  1.29147E+01  7.29735E-03  1.83735E-01
      21    -1     0     0   513   515  0.000000000E+00  0.000000000E+00  3.244804132E+02  3.244804132E+02  0.000000000E+00  0.00000E+00  9.000E+00
      -1    -1     0     0     0   513  0.000000000E+00  0.000000000E+00 -1.097312661E+03  1.097312661E+03  0.000000000E+00  0.00000E+00  9.000E+00
      -1     1     1     2     0   511  3.142748596E+02 -4.608923089E+02 -5.398875492E+02  7.763175726E+02  1.321449896E-05  0.00000E+00  9.000E+00
      21     1     1     2   511   515 -3.144716487E+02  4.738054806E+02 -1.883510200E+02  5.990493786E+02  9.344061824E-06  0.00000E+00  9.000E+00
      22     1     1     2     0     0  1.967891173E-01 -1.291317172E+01 -4.459367823E+01  4.642612269E+01  8.259061849E-07  0.00000E+00  9.000E+00
#rwgt            1         196   9.8619333290381043E-004       28582       72331           0
<weights>
0.80877E+02
0.63008E+02
0.10580E+03
0.73648E+02
0.89279E+02
0.69193E+02
0.95847E+02
</weights>
<scales uborns=' 0.563221295E+03'> </scales>
</event>
<event>
      5  10001  2.55839E+03  1.12915E+02  7.29735E-03  1.21501E-01
       2    -1     0     0   514     0  0.000000000E+00  0.000000000E+00  2.283484162E+03  2.283484162E+03  0.000000000E+00  0.00000E+00  9.000E+00
      21    -1     0     0   512   513  0.000000000E+00  0.000000000E+00 -1.715488175E+02  1.715488175E+02  0.000000000E+00  0.00000E+00  9.000E+00
      22     1     1     2     0     0  1.738211488E+02  1.179982029E+02  5.592770483E+02  5.974346696E+02  1.078959322E-05  0.00000E+00  9.000E+00
      21     1     1     2   514   513 -3.945716942E+02 -3.851396789E+02  4.823507270E+02  7.325855704E+02  5.394796609E-06  0.00000E+00  9.000E+00
       2     1     1     2   512     0  2.207505454E+02  2.671414761E+02  1.070307569E+03  1.125012740E+03  1.525878906E-05  0.00000E+00  9.000E+00
#rwgt            1         182   1.4804743716775237E-002       28582       72437           0
<weights>
0.15283E+01
0.12002E+01
0.19807E+01
0.14033E+01
0.16707E+01
0.13071E+01
0.18119E+01
</weights>
<scales uborns=' 0.553946017E+03'> </scales>
</event>
<event>
      5  10001  7.09003E+03  2.73240E+01  7.29735E-03  1.55912E-01
       2    -1     0     0   512     0  0.000000000E+00  0.000000000E+00  1.031404056E+03  1.031404056E+03  0.000000000E+00  0.00000E+00  9.000E+00
      21    -1     0     0   511   515  0.000000000E+00  0.000000000E+00 -9.263383881E+02  9.263383881E+02  0.000000000E+00  0.00000E+00  9.000E+00
      22     1     1     2     0     0 -1.293509768E+02  2.536806583E+01  2.750653676E+02  3.050183116E+02  5.394796609E-06  0.00000E+00  9.000E+00
      21     1     1     2   512   515  4.555087645E+02 -9.867574651E+01 -8.078074104E+02  9.326188663E+02  2.157918644E-05  0.00000E+00  9.000E+00
       2     1     1     2   511     0 -3.261577877E+02  7.330768068E+01  6.378077103E+02  7.201052658E+02  7.629394531E-06  0.00000E+00  9.000E+00
#rwgt            1         182   5.8047427577632288E-003       28582       72673           0
<weights>
0.50178E+01
0.38425E+01
0.66997E+01
0.45072E+01
0.56296E+01
0.42778E+01
0.59717E+01
</weights>
<scales uborns=' 0.466112711E+03'> </scales>
</event>
<event>
      5  10001  1.78111E+02  2.28405E+01  7.29735E-03  1.61747E-01
      21    -1     0     0   511   513  0.000000000E+00  0.000000000E+00  6.472948303E+02  6.472948303E+02  0.000000000E+00  0.00000E+00  9.000E+00
       2    -1     0     0   514     0  0.000000000E+00  0.000000000E+00 -1.184886591E+03  1.184886591E+03  0.000000000E+00  0.00000E+00  9.000E+00
       2     1     1     2   511     0  1.921975236E+01  7.444892843E+02 -2.126486456E+02  7.745018656E+02  1.809469792E-05  0.00000E+00  9.000E+00
      21     1     1     2   514   513 -9.817625293E+00 -8.748710400E+02 -2.675979998E+02  9.149341025E+02  1.009274029E-05  0.00000E+00  9.000E+00
      22     1     1     2     0     0 -9.402127065E+00  1.303817557E+02 -5.734511553E+01  1.427454534E+02  4.156969970E-06  0.00000E+00  9.000E+00
#rwgt            1         187   4.8435206233830765E-003       28582       73332           0
<weights>
0.20352E+00
0.15983E+00
0.26393E+00
0.18540E+00
0.22474E+00
0.17546E+00
0.23902E+00
</weights>
<scales uborns=' 0.875768324E+03'> </scales>
</event>
<event>
      5  10001  1.87985E+00  1.13475E+01  7.29735E-03  1.89617E-01
       1    -1     0     0   515     0  0.000000000E+00  0.000000000E+00  3.412165688E+03  3.412165688E+03  0.000000000E+00  0.00000E+00  9.000E+00
      21    -1     0     0   512   511  0.000000000E+00  0.000000000E+00 -2.583106236E+03  2.583106236E+03  0.000000000E+00  0.00000E+00  9.000E+00
       1     1     1     2   512     0 -4.116194491E+02  1.991900656E+03  2.538869452E+03  3.253145691E+03  4.315837288E-05  0.00000E+00  9.000E+00
      21     1     1     2   515   511  4.192393527E+02 -2.009385153E+03 -1.750163841E+03  2.697492131E+03  3.051757812E-05  0.00000E+00  9.000E+00
      22     1     1     2     0     0 -7.619903622E+00  1.748449643E+01  4.035384156E+01  4.463410215E+01  0.000000000E+00  0.00000E+00  9.000E+00
#rwgt            1         181   7.6625618938590918E-004       28582       74514           0
<weights>
0.64570E-01
0.45091E-01
0.95133E-01
0.51639E-01
0.82225E-01
0.56383E-01
0.74706E-01
</weights>
<scales uborns=' 0.875768324E+03'> </scales>
</event>
<event>
      4  10001  1.58932E+05  8.94427E-01  7.29735E-03  6.74792E-01
      21    -1     0     0   511   512  0.000000000E+00  0.000000000E+00  1.839066002E+02  1.839066002E+02  0.000000000E+00  0.00000E+00  9.000E+00
      -1    -1     0     0     0   513  0.000000000E+00  0.000000000E+00 -5.872319922E+02  5.872319922E+02  0.000000000E+00  0.00000E+00  9.000E+00
      -1     1     1     2     0   512 -2.653595937E+02  7.725776942E+01 -4.102656899E+02  4.946740475E+02  0.000000000E+00  0.00000E+00  9.000E+00
      21     1     1     2   511   513  2.653595937E+02 -7.725776942E+01  6.940297909E+00  2.764645450E+02  8.041106202E-07  0.00000E+00  9.000E+00
#rwgt            1         196   1.8122896648592175E-003       28582       74879           0
<weights>
0.38496E+06
0.30809E+06
0.48875E+06
0.36526E+06
0.40545E+06
0.32471E+06
0.46406E+06
</weights>
<scales uborns=' 0.875768324E+03'> </scales>
</event>
<event>
      5  10001  5.55525E+03  8.29102E+02  7.29735E-03  9.29885E-02
       2    -1     0     0   513     0  0.000000000E+00  0.000000000E+00  3.634951028E+02  3.634951028E+02  0.000000000E+00  0.00000E+00  9.000E+00
       1    -1     0     0   514     0  0.000000000E+00  0.000000000E+00 -7.059018876E+02  7.059018876E+02  0.000000000E+00  0.00000E+00  9.000E+00
       2     1     1     2   514     0 -3.730548406E+02  3.073417448E+01 -1.502733101E+01  3.746202400E+02  1.735713456E-06  0.00000E+00  9.000E+00
      22     1     1     2     0     0 -7.981216077E+00  1.130803739E+02  6.379084331E+01  1.300774479E+02  3.631483605E-06  0.00000E+00  9.000E+00
       1     1     1     2   513     0  3.810360566E+02 -1.438145484E+02 -3.911702971E+02  5.646993024E+02  5.394796609E-06  0.00000E+00  9.000E+00
#rwgt            1          92   2.4398756078097486E-004       28582       75014           0
<weights>
0.86976E-01
0.71860E-01
0.10684E+00
0.84226E-01
0.89860E-01
0.74207E-01
0.10341E+00
</weights>
<scales uborns=' 0.485733864E+03'> </scales>
</event>
<event>
      5  10001  1.46548E+00  9.45433E+01  7.29735E-03  1.24934E-01
      21    -1     0     0   512   514  0.000000000E+00  0.000000000E+00  2.139741513E+03  2.139741513E+03  0.000000000E+00  0.00000E+00  9.000E+00
       2    -1     0     0   514     0  0.000000000E+00  0.000000000E+00 -2.315776928E+03  2.315776928E+03  0.000000000E+00  0.00000E+00  9.000E+00
       2     1     1     2   511     0 -1.190709444E+03 -1.808820794E+03 -5.947222864E+02  2.245732897E+03  6.823937920E-05  0.00000E+00  9.000E+00
      21     1     1     2   512   511  1.152268815E+03  1.779603625E+03  4.209013133E+02  2.161450994E+03  1.618438983E-05  0.00000E+00  9.000E+00
      22     1     1     2     0     0  3.844062873E+01  2.921716967E+01 -2.214441944E+00  4.833454969E+01  1.173318606E-06  0.00000E+00  9.000E+00
#rwgt            1         187   4.2168997742335859E-002       28582       76251           0
<weights>
0.12287E-02
0.91161E-03
0.16938E-02
0.10432E-02
0.14652E-02
0.10737E-02
0.14204E-02
</weights>
<scales uborns=' 0.216504434E+04'> </scales>
</event>
<event>
      5  10001  2.37086E+01  3.28023E+01  7.29735E-03  1.50394E-01
      21    -1     0     0   511   514  0.000000000E+00  0.000000000E+00  4.471099572E+02  4.471099572E+02  0.000000000E+00  0.00000E+00  9.000E+00
       2    -1     0     0   514     0  0.000000000E+00  0.000000000E+00 -3.589300765E+03  3.589300765E+03  0.000000000E+00  0.00000E+00  9.000E+00
       2     1     1     2   513     0  9.765863804E+01  1.216935497E+03 -1.850283302E+03  2.216758333E+03  3.051757812E-05  0.00000E+00  9.000E+00
      21     1     1     2   511   513 -9.743733994E+01 -1.243940769E+03 -1.286335316E+03  1.792077346E+03  3.411968960E-05  0.00000E+00  9.000E+00
      22     1     1     2     0     0 -2.212981056E-01  2.700527188E+01 -5.572191029E+00  2.757504297E+01  5.092623082E-07  0.00000E+00  9.000E+00
#rwgt            1         187   1.0887831481001458E-002       28582       77092           0
<weights>
0.43645E+01
0.33000E+01
0.58935E+01
0.38062E+01
0.50519E+01
0.37841E+01
0.50916E+01
</weights>
<scales uborns=' 0.216504434E+04'> </scales>
</event>
<event>
      5  10001  9.32535E+03  3.70817E+01  7.29735E-03  1.46910E-01
      21    -1     0     0   512   514  0.000000000E+00  0.000000000E+00  3.405849917E+02  3.405849917E+02  0.000000000E+00  0.00000E+00  9.000E+00
       2    -1     0     0   513     0  0.000000000E+00  0.000000000E+00 -1.357491190E+03  1.357491190E+03  0.000000000E+00  0.00000E+00  9.000E+00
       2     1     1     2   512     0 -4.374306929E+02  1.451261178E+00 -5.602981715E+02  7.108317370E+02  7.629394531E-06  0.00000E+00  9.000E+00
      21     1     1     2   513   514  4.519768473E+02 -3.556086385E+01  7.050989971E+01  4.588238131E+02  7.864199878E-06  0.00000E+00  9.000E+00
      22     1     1     2     0     0 -1.454615438E+01  3.410960267E+01 -5.271179268E+02  5.284206320E+02  1.078959322E-05  0.00000E+00  9.000E+00
#rwgt            1         187   8.6535909358884961E-003       28582       78562           0
<weights>
0.37006E+03
0.29520E+03
0.47200E+03
0.34657E+03
0.39619E+03
0.31520E+03
0.44087E+03
</weights>
<scales uborns=' 0.445038466E+03'> </scales>
</event>
<event>
      5  10001  5.80206E+04  2.05021E+02  7.29735E-03  1.11257E-01
       2    -1     0     0   515     0  0.000000000E+00  0.000000000E+00  1.176924164E+03  1.176924164E+03  0.000000000E+00  0.00000E+00  9.000E+00
      21    -1     0     0   512   515  0.000000000E+00  0.000000000E+00 -1.159817468E+02  1.159817468E+02  0.000000000E+00  0.00000E+00  9.000E+00
      22     1     1     2     0     0 -4.509018714E+01  1.111282136E+01  6.077658900E+01  7.648799608E+01  1.507891493E-06  0.00000E+00  9.000E+00
      21     1     1     2   512   511  3.078640743E+02 -9.982265419E+01  2.278223291E+02  3.957876503E+02  6.031565972E-06  0.00000E+00  9.000E+00
       2     1     1     2   511     0 -2.627738871E+02  8.870983283E+01  7.723434989E+02  8.206302642E+02  1.525878906E-05  0.00000E+00  9.000E+00
#rwgt            1         182   1.0361865281268810E-002       28582       79233           0
<weights>
0.87755E+04
0.71222E+04
0.10969E+05
0.84136E+04
0.91390E+04
0.74286E+04
0.10533E+05
</weights>
<scales uborns=' 0.445038466E+03'> </scales>
</event>
<event>
      5  10001  3.50759E+02  1.99791E+02  7.29735E-03  1.11664E-01
       2    -1     0     0   514     0  0.000000000E+00  0.000000000E+00  1.584532101E+03  1.584532101E+03  0.000000000E+00  0.00000E+00  9.000E+00
      21    -1     0     0   511   514  0.000000000E+00  0.000000000E+00 -3.824633046E+02  3.824633046E+02  0.000000000E+00  0.00000E+00  9.000E+00
       2     1     1     2   513     0  5.932306549E+02 -1.293037353E+02  3.014868126E+02  6.778911153E+02  1.265191952E-05  0.00000E+00  9.000E+00
      21     1     1     2   511   513 -7.223638332E+02  1.492146845E+02  5.654815291E+02  9.294320251E+02  1.078959322E-05  0.00000E+00  9.000E+00
      22     1     1     2     0     0  1.291331782E+02 -1.991094912E+01  3.351004548E+02  3.596722653E+02  3.814697266E-06  0.00000E+00  9.000E+00
#rwgt            1         182   6.7362951963653717E-003       28582       79610           0
<weights>
0.24805E+00
0.19522E+00
0.32089E+00
0.22689E+00
0.27261E+00
0.21343E+00
0.29199E+00
</weights>
<scales uborns=' 0.778469115E+03'> </scales>
</event>
<event>
      4  10001  9.36249E+02  8.94427E-01  7.29735E-03  7.23047E-01
       1    -1     0     0   513     0  0.000000000E+00  0.000000000E+00  2.287459498E+03  2.287459498E+03  0.000000000E+00  0.00000E+00  9.000E+00
      21    -1     0     0   512   514  0.000000000E+00  0.000000000E+00 -2.039491432E+02  2.039491432E+02  0.000000000E+00  0.00000E+00  9.000E+00
       1     1     1     2   512     0  2.466303542E+02 -6.094888964E+02  7.043660991E+02  9.635532409E+02  7.629394531E-06  0.00000E+00  9.000E+00
      21     1     1     2   513   514 -2.466303542E+02  6.094888964E+02  1.379144256E+03  1.527855400E+03  0.000000000E+00  0.00000E+00  9.000E+00
#rwgt            1         181   1.8047701471673634E-003       28582       79873           0
<weights>
0.31751E+04
0.24572E+04
0.41806E+04
0.28641E+04
0.35393E+04
0.27240E+04
0.37504E+04
</weights>
<scales uborns=' 0.778469115E+03'> </scales>
</event>
<event>
      5  10001  8.11315E+01  5.48967E+00  7.29735E-03  2.31639E-01
       2    -1     0     0   512     0  0.000000000E+00  0.000000000E+00  1.994342377E+03  1.994342377E+03  0.000000000E+00  0.00000E+00  9.000E+00
       1    -1     0     0   511     0  0.000000000E+00  0.000000000E+00 -1.065759479E+03  1.065759479E+03  0.000000000E+00  0.00000E+00  9.000E+00
       2     1     1     2   511     0  3.533777388E+02 -9.098974189E+02  1.517723249E+03  1.804514616E+03  0.000000000E+00  0.00000E+00  9.000E+00
       1     1     1     2   512     0 -3.668871248E+02  9.362253683E+02 -6.434088676E+02  1.193775135E+03  2.642899792E-05  0.00000E+00  9.000E+00
      22     1     1     2     0     0  1.350938601E+01 -2.632794939E+01  5.426851641E+01  6.181210482E+01  6.743495762E-07  0.00000E+00  9.000E+00
#rwgt            1          92   2.1554098110053255E-003       28582       80519           0
<weights>
0.45882E+00
0.36120E+00
0.59354E+00
0.41804E+00
0.50673E+00
0.39644E+00
0.53742E+00
</weights>
<scales uborns=' 0.100565232E+04'> </scales>
</event>
<event>
      5  10001  2.60210E+01  1.09041E+02  7.29735E-03  1.22160E-01
       1    -1     0     0   512     0  0.000000000E+00  0.000000000E+00  8.659179594E+02  8.659179594E+02  0.000000000E+00  0.00000E+00  9.000E+00
      21    -1     0     0   514   512  0.000000000E+00  0.000000000E+00 -2.591769435E+03  2.591769435E+03  0.000000000E+00  0.00000E+00  9.000E+00
      22     1     1     2     0     0 -3.516181462E+02 -5.581904586E+02  7.558005159E+01  6.640212745E+02  1.516911861E-05  0.00000E+00  9.000E+00
      21     1     1     2   514   513  7.443576573E+02  9.813306712E+02 -1.840963294E+03  2.214999788E+03  3.051757812E-05  0.00000E+00  9.000E+00
       1     1     1     2   513     0 -3.927395111E+02 -4.231402125E+02  3.953176741E+01  5.786663319E+02  9.072445674E-06  0.00000E+00  9.000E+00
#rwgt            1         181   7.0899222658658704E-004       28582       93498           0
<weights>
0.11506E-01
0.84640E-02
0.16043E-01
0.97647E-02
0.13747E-01
0.99736E-02
0.13427E-01
</weights>
<scales uborns=' 0.123361339E+04'> </scales>
</event>
<event>
      4  10001  7.34093E+02  8.94427E-01  7.29735E-03  7.43070E-01
       2    -1     0     0   512     0  0.000000000E+00  0.000000000E+00  3.415982642E+03  3.415982642E+03  0.000000000E+00  0.00000E+00  9.000E+00
       5    -1     0     0   511     0  0.000000000E+00  0.000000000E+00 -6.237699617E+02  6.237699617E+02  0.000000000E+00  0.00000E+00  9.000E+00
       2     1     1     2   511     0  1.001114631E+02 -6.781337683E+02  3.179414572E+03  3.252470559E+03  4.315837288E-05  0.00000E+00  9.000E+00
       5     1     1     2   512     0 -1.001114631E+02  6.781337683E+02 -3.872018921E+02  7.872820448E+02  1.525878906E-05  0.00000E+00  9.000E+00
#rwgt            1         112   1.3577932536982284E-004       28582       93572           0
<weights>
0.70473E+04
0.56567E+04
0.88577E+04
0.65888E+04
0.75054E+04
0.60503E+04
0.83171E+04
</weights>
<scales uborns=' 0.123361339E+04'> </scales>
</event>
<event>
      5  10001  9.31515E+02  2.61371E+00  7.29735E-03  3.16300E-01
       3    -1     0     0   512     0  0.000000000E+00  0.000000000E+00  1.693330259E+03  1.693330259E+03  0.000000000E+00  0.00000E+00  9.000E+00
      -1    -1     0     0     0   512  0.000000000E+00  0.000000000E+00 -3.925788805E+02  3.925788805E+02  0.000000000E+00  0.00000E+00  9.000E+00
       3     1     1     2   513     0  1.716407401E+02  6.328163259E+02  1.256175489E+03  1.417001731E+03  1.525878906E-05  0.00000E+00  9.000E+00
      -1     1     1     2     0   513 -1.726324962E+02 -6.347426833E+02  3.461076825E+01  6.587094640E+02  2.132480600E-06  0.00000E+00  9.000E+00
      22     1     1     2     0     0  9.917560612E-01  1.926357380E+00  9.965120924E+00  1.019794430E+01  2.064765462E-07  0.00000E+00  9.000E+00
#rwgt            1         149   1.0060454431341210E-005       28582       94169           0
<weights>
0.73098E+00
0.58758E+00
0.92474E+00
0.68489E+00
0.78290E+00
0.62713E+00
0.86342E+00
</weights>
<scales uborns=' 0.658068471E+03'> </scales>
</event>
<event>
      5  10001  2.13450E+01  1.07501E+01  7.29735E-03  1.92194E-01
      21    -1     0     0   511   514  0.000000000E+00  0.000000000E+00  8.302081211E+02  8.302081211E+02  0.000000000E+00  0.00000E+00  9.000E+00
       2    -1     0     0   513     0  0.000000000E+00  0.000000000E+00 -2.213168573E+03  2.213168573E+03  0.000000000E+00  0.00000E+00  9.000E+00
       2     1     1     2   511     0  5.779477636E+00  1.284177899E+03 -3.271924850E+02  1.325217416E+03  2.089395742E-05  0.00000E+00  9.000E+00
      21     1     1     2   513   514 -9.658081796E+00 -1.274151835E+03 -8.951758467E+02  1.557207749E+03  2.642899792E-05  0.00000E+00  9.000E+00
      22     1     1     2     0     0  3.878604159E+00 -1.002606412E+01 -1.605921201E+02  1.609515287E+02  4.264961200E-06  0.00000E+00  9.000E+00
#rwgt            1         187   3.2938992839931162E-003       28582       94289           0
<weights>
0.18896E+01
0.14527E+01
0.25066E+01
0.16750E+01
0.21494E+01
0.16388E+01
0.22036E+01
</weights>
<scales uborns=' 0.127917876E+04'> </scales>
</event>
<event>
      5  10001  9.51244E+00  2.15883E+02  7.29735E-03  1.10453E-01
      -1    -1     0     0     0   512  0.000000000E+00  0.000000000E+00  1.017334897E+03  1.017334897E+03  0.000000000E+00  0.00000E+00  9.000E+00
       2    -1     0     0   512     0  0.000000000E+00  0.000000000E+00 -2.179167069E+03  2.179167069E+03  0.000000000E+00  0.00000E+00  9.000E+00
      22     1     1     2     0     0  9.371019755E+02 -7.768663820E+02 -5.086035950E+02  1.319226707E+03  7.629394531E-06  0.00000E+00  9.000E+00
      -1     1     1     2     0   513 -1.237509945E+03  7.669488473E+02 -4.960365788E+02  1.538081170E+03  2.750817318E-05  0.00000E+00  9.000E+00
       2     1     1     2   513     0  3.004079692E+02  9.917534714E+00 -1.571919985E+02  3.391940887E+02  4.264961200E-06  0.00000E+00  9.000E+00
#rwgt            1         161   3.5957709969295336E-004       28582       96164           0
<weights>
0.25560E-01
0.20012E-01
0.33238E-01
0.23023E-01
0.28576E-01
0.22217E-01
0.29730E-01
</weights>
<scales uborns=' 0.148733603E+04'> </scales>
</event>
</LesHouchesEvents>
 #Random number generator exit values:        28582         96443             0
