<LesHouchesEvents version="3.0">
<!--
file generated with POWHEG-BOX-V2
Input file powheg.input contained:
vdecaymode  1   ! Z decay products (default 2): 1 for electronic, 2 for muonic and 3 for tauonic dec

numevts 100     ! number of events to be generated
ih1   1           ! hadron 1 (1 for protons, -1 for antiprotons)
ih2  -1           ! hadron 2 (1 for protons, -1 for antiprotons)
ebeam1 980d0      ! energy of beam 1
ebeam2 980d0      ! energy of beam 2

bornktmin  5d0     ! (default 0d0) generation cut. Minimum kt in underlying Born
#bornsuppfact 10d0 ! (default 0d0) mass param for Born suppression factor. If < 0 suppfact = 1

! To be set only if using internal (mlm) pdfs
! 131 cteq4m
!  83 cteq4l
! ndns1 131         ! pdf set for hadron 1 (mlm numbering)
! ndns2 131         ! pdf set for hadron 2 (mlm numbering)
! To be set only if using LHA pdfs
! 19150 cteq4m
! 19170 cteq4l
! 10050 cteq6m
lhans1  11000         ! pdf set for hadron 1 (LHA numbering)
lhans2  11000         ! pdf set for hadron 2 (LHA numbering)

! Parameters to allow or not the use of stored data
use-old-grid    1 ! if 1 use old grid if file pwggrids.dat is present (<> 1 regenerate)
use-old-ubound  1 ! if 1 use norm of upper bounding function stored in pwgubound.dat, if present; <>

ncall1 500   ! number of calls for initializing the integration grid
itmx1    5     ! number of iterations for initializing the integration grid
ncall2 160   ! number of calls for computing the integral and finding upper bounding envelope
itmx2    3     ! number of iterations for computing the integral and finding upper bounding envelope
foldcsi   5    ! number of folds on csi integration
foldy     5    ! number of folds on  y  integration
foldphi   5    ! number of folds on phi integration
nubound 2000 ! number of calls to set up the upper bounding norms for radiation

! OPTIONAL PARAMETERS

#withnegweights 1  ! (default 0) if 1, use negative weights

#renscfact  1d0    ! (default 1d0) ren scale factor: muren  = muref * renscfact
#facscfact  1d0    ! (default 1d0) fac scale factor: mufact = muref * facscfact

#bornonly   1      ! (default 0) if 1 do Born only
#testplots  1      ! (default 0, do not) do NLO and PWHG distributions
#xupbound 2d0      ! increase upper bound for radiation generation by this factor

#iseed    5437     !  Start the random number generator with seed iseed
#rand1     0       !  skipping  rand2*100000000+rand1 numbers.
#rand2     0       !  (see RM48 short writeup in CERNLIB)

#manyseeds 1       ! Used to perform multiple runs with different random
                   ! seeds in the same directory.
                   ! If set to 1, the program asks for an integer j.
                   ! The file pwgseeds.dat at line j is read, and the
                   ! integer at line j is used to initialize the random
                   ! sequence for the generation of the events.
                   ! The event file is called pwgevents-'j'.lhe

End of powheg.input content
PDF package: lha
 Random number generator initialized with:     54217137        193108             0
-->
<init>
     2212    -2212  9.80000E+02  9.80000E+02     -1     -1     -1     -1     -4      1
  1.41939E+02  2.16282E+01  1.00000E+00  10001
</init>
<event>
      7  10001  1.41997E+02  4.40024E+00 -1.00000E+00  2.54071E-01
       2    -1     0     0   501     0  0.000000000E+00  0.000000000E+00  4.230413288E+01  4.230413288E+01  1.497938923E-07  0.00000E+00  9.000E+00
      -2    -1     0     0     0   502  0.000000000E+00  0.000000000E+00 -6.106265452E+01  6.106265452E+01  4.299827384E-07  0.00000E+00  9.000E+00
      23     2     1     2     0     0 -5.658169564E+00  4.015505852E+00 -2.461427340E+01  9.381079489E+01  9.025776206E+01  0.00000E+00  9.000E+00
      11     1     3     3     0     0 -9.020904444E+00  1.184553453E+01 -5.772847508E+01  5.961770074E+01  5.110000000E-04  0.00000E+00  9.000E+00
     -11     1     3     3     0     0  3.362734880E+00 -7.830028681E+00  3.311420168E+01  3.419309416E+01  5.110000000E-04  0.00000E+00  9.000E+00
      21     1     1     2   501   511  9.813642231E-01 -2.375070877E+00  1.632567203E+00  3.044554661E+00  9.260721595E-08  0.00000E+00  9.000E+00
      21     1     1     2   511   502  4.676805341E+00 -1.640434975E+00  4.223184557E+00  6.511437852E+00  1.129155372E-07  0.00000E+00  9.000E+00
#rwgt            1          23   667.05562302087014         54217137      193128           0
</event>
<event>
      7  10001  1.41997E+02  3.02066E+00 -1.00000E+00  2.95956E-01
       1    -1     0     0   501     0  0.000000000E+00  0.000000000E+00  1.798180243E+02  1.798180243E+02  8.467060782E-07  0.00000E+00  9.000E+00
      -1    -1     0     0     0   512  0.000000000E+00  0.000000000E+00 -1.417676615E+01  1.417676615E+01  1.185246644E-07  0.00000E+00  9.000E+00
      23     2     1     2     0     0 -2.498306680E+01  4.593112062E+00  1.043822327E+02  1.230946284E+02  6.009481456E+01  0.00000E+00  9.000E+00
      11     1     3     3     0     0 -1.668794711E+01 -2.743078383E+01  4.891201918E+01  5.850915399E+01  5.110000000E-04  0.00000E+00  9.000E+00
     -11     1     3     3     0     0 -8.295119681E+00  3.202389589E+01  5.547021350E+01  6.458547441E+01  5.110000000E-04  0.00000E+00  9.000E+00
      21     1     1     2   501   502  2.800371971E+01 -4.589431252E+00  6.163727898E+01  6.785591615E+01  1.422979077E-06  0.00000E+00  9.000E+00
      21     1     1     2   502   512 -3.020652917E+00 -3.680810053E-03 -3.782534806E-01  3.044245931E+00  6.282733182E-08  0.00000E+00  9.000E+00
#rwgt            1          21   4.3779302063941055         54217137      194070           0
</event>
<event>
      7  10001  1.41997E+02  2.57252E+01 -1.00000E+00  1.57823E-01
       2    -1     0     0   501     0  0.000000000E+00  0.000000000E+00  1.412191171E+02  1.412191171E+02  1.191448637E-06  0.00000E+00  9.000E+00
      21    -1     0     0   502   501  0.000000000E+00  0.000000000E+00 -5.425772886E+01  5.425772886E+01  3.698227671E-07  0.00000E+00  9.000E+00
      23     2     1     2     0     0  7.739596366E+00  5.024384087E+01  9.587199180E+01  1.396616385E+02  8.791808443E+01  0.00000E+00  9.000E+00
      11     1     3     3     0     0 -1.918626202E+01  6.231893626E+01  8.724017782E+01  1.089156146E+02  5.110000000E-04  0.00000E+00  9.000E+00
     -11     1     3     3     0     0  2.692585839E+01 -1.207509539E+01  8.631813981E+00  3.074602399E+01  5.110000000E-04  0.00000E+00  9.000E+00
       2     1     1     2   511     0 -1.331968370E+01 -1.956567336E+01 -1.226969858E+00  2.370094941E+01  0.000000000E+00  0.00000E+00  9.000E+00
      21     1     1     2   502   511  5.580087337E+00 -3.067816751E+01 -7.683633747E+00  3.211425796E+01  2.291727970E-06  0.00000E+00  9.000E+00
#rwgt            1          24   17.753162814899021         54217137      195113           0
</event>
<event>
      7  10001  1.41997E+02  5.02111E+01 -1.00000E+00  1.38969E-01
      21    -1     0     0   502   512  0.000000000E+00  0.000000000E+00  1.085938248E+02  1.085938248E+02  7.808290851E-07  0.00000E+00  9.000E+00
      -1    -1     0     0     0   502  0.000000000E+00  0.000000000E+00 -3.597612859E+02  3.597612859E+02  2.127339236E-06  0.00000E+00  9.000E+00
      23     2     1     2     0     0  9.500438850E+00  1.862235363E+01 -2.729668872E+02  2.874470061E+02  8.762311011E+01  0.00000E+00  9.000E+00
      11     1     3     3     0     0 -1.007483512E+01 -6.080767750E+00  8.722330117E-01  1.179995042E+01  5.110000000E-04  0.00000E+00  9.000E+00
     -11     1     3     3     0     0  1.957527398E+01  2.470312138E+01 -2.738391202E+02  2.756470557E+02  5.110000000E-04  0.00000E+00  9.000E+00
      -1     1     1     2     0   501  4.069970641E+01 -1.757156383E+01 -6.615247643E+01  7.963275767E+01  0.000000000E+00  0.00000E+00  9.000E+00
      21     1     1     2   501   512 -5.020014526E+01 -1.050789800E+00  8.795190246E+01  1.012753469E+02  2.209407420E-06  0.00000E+00  9.000E+00
#rwgt            1          15   102.64004351691112         54217137      195372           0
</event>
<event>
      7  10001  1.41997E+02  1.64842E+00 -1.00000E+00  4.07391E-01
       2    -1     0     0   501     0  0.000000000E+00  0.000000000E+00  1.854231623E+02  1.854231623E+02  1.146628175E-06  0.00000E+00  9.000E+00
      -2    -1     0     0     0   502  0.000000000E+00  0.000000000E+00 -9.327050473E+00  9.327050473E+00  5.467684585E-09  0.00000E+00  9.000E+00
      23     2     1     2     0     0  1.791354826E+01  1.092416515E+01  1.245683353E+02  1.388069052E+02  5.753133203E+01  0.00000E+00  9.000E+00
      11     1     3     3     0     0 -6.712206538E+00  1.605515069E+01  7.299834058E+00  1.887085472E+01  5.110000000E-04  0.00000E+00  9.000E+00
     -11     1     3     3     0     0  2.462575480E+01 -5.130985539E+00  1.172685012E+02  1.199360504E+02  5.110000000E-04  0.00000E+00  9.000E+00
      21     1     1     2   511   502 -1.743052925E+01 -9.845801373E+00  5.067548410E+01  5.448640054E+01  1.069649955E-06  0.00000E+00  9.000E+00
      21     1     1     2   501   511 -4.830190103E-01 -1.078363780E+00  8.522923929E-01  1.456907042E+00  3.818316948E-08  0.00000E+00  9.000E+00
#rwgt            1          23   119.64078666995067         54217137      195451           0
</event>
<event>
      7  10001  1.41997E+02  1.33177E+01 -1.00000E+00  1.82389E-01
       2    -1     0     0   501     0  0.000000000E+00  0.000000000E+00  9.619533970E+01  9.619533970E+01  8.013011665E-07  0.00000E+00  9.000E+00
      21    -1     0     0   502   501  0.000000000E+00  0.000000000E+00 -5.228833585E+01  5.228833585E+01  4.195772844E-07  0.00000E+00  9.000E+00
      23     2     1     2     0     0 -3.742240346E+00 -9.611783085E+00  6.326239023E+01  1.118474612E+02  9.165879021E+01  0.00000E+00  9.000E+00
      11     1     3     3     0     0  4.758989698E+00 -3.719151308E+01  7.243553961E+01  8.156447773E+01  5.110000000E-04  0.00000E+00  9.000E+00
     -11     1     3     3     0     0 -8.501230044E+00  2.757972999E+01 -9.173149380E+00  3.028298348E+01  5.110000000E-04  0.00000E+00  9.000E+00
       2     1     1     2   512     0 -5.345214589E-01  5.543279063E+00 -2.666526263E+01  2.724059264E+01  0.000000000E+00  0.00000E+00  9.000E+00
      21     1     1     2   502   512  4.276761805E+00  4.068504022E+00  7.309876259E+00  9.395621716E+00  5.765810275E-08  0.00000E+00  9.000E+00
#rwgt            1          24   120.94877730622001         54217137      197151           0
</event>
<event>
      7  10001  1.41997E+02  4.77152E+00 -1.00000E+00  2.46630E-01
      21    -1     0     0   502   501  0.000000000E+00  0.000000000E+00  1.517834655E+01  1.517834655E+01  1.059028926E-07  0.00000E+00  9.000E+00
      -2    -1     0     0     0   511  0.000000000E+00  0.000000000E+00 -1.970278381E+02  1.970278381E+02  1.901237974E-06  0.00000E+00  9.000E+00
      23     2     1     2     0     0 -6.345462859E+00  1.541090729E+01 -1.295626915E+02  1.478773085E+02  6.930689985E+01  0.00000E+00  9.000E+00
      11     1     3     3     0     0  1.165096937E+01 -4.866254671E+00 -1.175457123E+02  1.182219100E+02  5.110000000E-04  0.00000E+00  9.000E+00
     -11     1     3     3     0     0 -1.799643223E+01  2.027716196E+01 -1.201697923E+01  2.965539850E+01  5.110000000E-04  0.00000E+00  9.000E+00
      -2     1     1     2     0   501  8.848344065E+00 -1.134851735E+01 -2.859377536E+00  1.467167607E+01  0.000000000E+00  0.00000E+00  9.000E+00
      21     1     1     2   502   511 -2.502881207E+00 -4.062389940E+00 -4.942742255E+01  4.965720015E+01  4.558681777E-07  0.00000E+00  9.000E+00
#rwgt            1          14   59.252649859771012         54217137      197456           0
</event>
<event>
      7  10001  1.41997E+02  3.02045E+01 -1.00000E+00  1.52832E-01
       1    -1     0     0   511     0  0.000000000E+00  0.000000000E+00  1.443777646E+02  1.443777646E+02  1.254414547E-06  0.00000E+00  9.000E+00
      -1    -1     0     0     0   502  0.000000000E+00  0.000000000E+00 -7.482450843E+01  7.482450843E+01  6.169666986E-07  0.00000E+00  9.000E+00
      23     2     1     2     0     0  3.363810589E+01  1.835426319E+01  1.794694217E+01  1.197338168E+02  1.120075578E+02  0.00000E+00  9.000E+00
      11     1     3     3     0     0  6.626103086E+01  3.047027462E+01  3.509748776E+01  8.093698471E+01  5.110000000E-04  0.00000E+00  9.000E+00
     -11     1     3     3     0     0 -3.262292497E+01 -1.211601143E+01 -1.715054558E+01  3.879683210E+01  5.110000000E-04  0.00000E+00  9.000E+00
      21     1     1     2   501   502 -3.864428954E+00 -2.343748520E+01 -1.376675068E+01  2.745492575E+01  9.321154843E-07  0.00000E+00  9.000E+00
      21     1     1     2   511   501 -2.977367693E+01  5.083222013E+00  6.537306466E+01  7.201353044E+01  3.722552057E-07  0.00000E+00  9.000E+00
#rwgt            1          21   6.1725716608996324         54217137      197700           0
</event>
<event>
      7  10001  1.41997E+02  6.85267E+00 -1.00000E+00  2.16862E-01
       1    -1     0     0   501     0  0.000000000E+00  0.000000000E+00  1.368182369E+01  1.368182369E+01  8.520398959E-08  0.00000E+00  9.000E+00
      -1    -1     0     0     0   502  0.000000000E+00  0.000000000E+00 -3.165848923E+02  3.165848923E+02  1.941831264E-06  0.00000E+00  9.000E+00
      23     2     1     2     0     0  7.047606395E+00  3.204092752E+00 -2.923936605E+02  3.167581567E+02  1.215801882E+02  0.00000E+00  9.000E+00
      11     1     3     3     0     0  1.077399884E+01 -5.788581799E+01 -1.167579322E+02  1.307641453E+02  5.110000000E-04  0.00000E+00  9.000E+00
     -11     1     3     3     0     0 -3.726392443E+00  6.108991074E+01 -1.756357283E+02  1.859940114E+02  5.110000000E-04  0.00000E+00  9.000E+00
      21     1     1     2   501   511 -3.689716857E-01 -5.811789543E-01  1.051053488E-01  6.963879782E-01  1.942616654E-07  0.00000E+00  9.000E+00
      21     1     1     2   511   502 -6.678634709E+00 -2.622913797E+00 -1.061451350E+01  1.281217137E+01  9.736346475E-07  0.00000E+00  9.000E+00
#rwgt            1          21   329.91527743684151         54217137      197853           0
</event>
<event>
      7  10001  1.41997E+02  5.11570E+01 -1.00000E+00  1.38509E-01
      21    -1     0     0   501   512  0.000000000E+00  0.000000000E+00  7.031667192E+01  7.031667192E+01  2.579660384E-07  0.00000E+00  9.000E+00
      -1    -1     0     0     0   502  0.000000000E+00  0.000000000E+00 -2.331891263E+02  2.331891263E+02  1.104907870E-06  0.00000E+00  9.000E+00
      23     2     1     2     0     0 -6.447707244E+00  1.878527570E+01 -1.443471976E+02  1.712991039E+02  9.007113878E+01  0.00000E+00  9.000E+00
      11     1     3     3     0     0 -6.144961845E+00 -2.878987876E+01 -1.411222237E+01  3.264617123E+01  5.110000000E-04  0.00000E+00  9.000E+00
     -11     1     3     3     0     0 -3.027453997E-01  4.757515446E+01 -1.302349752E+02  1.386529327E+02  5.110000000E-04  0.00000E+00  9.000E+00
      21     1     1     2   501   502 -4.450158185E+01 -1.417962673E+01 -5.290400930E+01  7.057114708E+01  1.253424346E-06  0.00000E+00  9.000E+00
      -1     1     1     2     0   512  5.094928909E+01 -4.605648970E+00  3.437875247E+01  6.163554723E+01  0.000000000E+00  0.00000E+00  9.000E+00
#rwgt            1          21   20.263950430888862         54217137      198228           0
</event>
<event>
      7  10001  1.41997E+02  1.90803E+00 -1.00000E+00  3.72872E-01
      21    -1     0     0   511   501  0.000000000E+00  0.000000000E+00  5.138333313E+02  5.138333313E+02  3.916348910E-06  0.00000E+00  9.000E+00
       1    -1     0     0   501     0  0.000000000E+00  0.000000000E+00 -5.583940269E+00  5.583940269E+00  3.826289959E-08  0.00000E+00  9.000E+00
      23     2     1     2     0     0 -1.409615076E+01 -5.305667290E+00  3.775621330E+02  3.863823098E+02  8.069246247E+01  0.00000E+00  9.000E+00
      11     1     3     3     0     0 -4.552463186E+01 -1.029505519E+01  2.770186952E+02  2.809231884E+02  5.110000000E-04  0.00000E+00  9.000E+00
     -11     1     3     3     0     0  3.142848110E+01  4.989387904E+00  1.005434378E+02  1.054591215E+02  5.110000000E-04  0.00000E+00  9.000E+00
       1     1     1     2   502     0  1.538528501E+01  6.712330091E+00  5.950774592E+01  6.182988108E+01  0.000000000E+00  0.00000E+00  9.000E+00
      21     1     1     2   511   502 -1.289134251E+00 -1.406662801E+00  7.117951215E+01  7.120508070E+01  8.564392047E-07  0.00000E+00  9.000E+00
#rwgt            1          16   2.0436810220260724         54217137      198439           0
</event>
<event>
      7  10001  1.41997E+02  2.69049E+01 -1.00000E+00  1.56396E-01
      21    -1     0     0   502   501  0.000000000E+00  0.000000000E+00  5.407333769E+01  5.407333769E+01  2.376375530E-07  0.00000E+00  9.000E+00
      -1    -1     0     0     0   502  0.000000000E+00  0.000000000E+00 -2.765549816E+01  2.765549816E+01  2.018809248E-07  0.00000E+00  9.000E+00
      23     2     1     2     0     0 -1.028775736E+01 -5.571611264E-01  9.372072764E+00  6.075918821E+01  5.914131233E+01  0.00000E+00  9.000E+00
      11     1     3     3     0     0  2.890691773E+00  1.219376614E+01 -2.148036201E+01  2.486865465E+01  5.110000000E-04  0.00000E+00  9.000E+00
     -11     1     3     3     0     0 -1.317844913E+01 -1.275092727E+01  3.085243477E+01  3.589053356E+01  5.110000000E-04  0.00000E+00  9.000E+00
      -1     1     1     2     0   511 -4.650882279E-01 -7.802278854E-01  1.845777133E-01  9.268934918E-01  0.000000000E+00  0.00000E+00  9.000E+00
      21     1     1     2   511   501  1.075284559E+01  1.337389012E+00  1.686118905E+01  2.004275414E+01  9.442199762E-07  0.00000E+00  9.000E+00
#rwgt            1          15   9.5428522316225877         54217137      199012           0
</event>
<event>
      7  10001  1.41997E+02  2.09685E+01 -1.00000E+00  1.64689E-01
      -4    -1     0     0     0   502  0.000000000E+00  0.000000000E+00  1.482451829E+02  1.482451829E+02  1.260434623E-06  0.00000E+00  9.000E+00
      21    -1     0     0   502   501  0.000000000E+00  0.000000000E+00 -3.633897483E+01  3.633897483E+01  2.619536920E-07  0.00000E+00  9.000E+00
      23     2     1     2     0     0 -2.744441008E+01  3.485853348E+00  9.431840272E+01  1.344251136E+02  9.169952705E+01  0.00000E+00  9.000E+00
      11     1     3     3     0     0 -1.416602962E+01 -3.529135455E+01  8.392714702E+01  9.214077332E+01  5.110000000E-04  0.00000E+00  9.000E+00
     -11     1     3     3     0     0 -1.327838046E+01  3.877720790E+01  1.039125571E+01  4.228434031E+01  5.110000000E-04  0.00000E+00  9.000E+00
      -4     1     1     2     0   512  2.908947667E+01 -1.433526469E+01  3.972751304E+00  3.267231580E+01  0.000000000E+00  0.00000E+00  9.000E+00
      21     1     1     2   512   501 -1.645066591E+00  1.084941134E+01  1.361505406E+01  1.748672833E+01  6.326815871E-07  0.00000E+00  9.000E+00
#rwgt            1           3   7.6543967149801482         54217137      199286           0
</event>
<event>
      7  10001  1.41997E+02  3.75973E+00 -1.00000E+00  2.69966E-01
       1    -1     0     0   511     0  0.000000000E+00  0.000000000E+00  1.397857304E+01  1.397857304E+01  6.946110759E-08  0.00000E+00  9.000E+00
      -1    -1     0     0     0   502  0.000000000E+00  0.000000000E+00 -1.892351173E+02  1.892351173E+02  1.091600074E-06  0.00000E+00  9.000E+00
      23     2     1     2     0     0  1.738148831E+00  1.688600717E+00 -1.389822990E+02  1.640542901E+02  8.713126953E+01  0.00000E+00  9.000E+00
      11     1     3     3     0     0  7.298526620E+00 -4.370579515E+00 -1.500359679E+02  1.502769514E+02  5.110000000E-04  0.00000E+00  9.000E+00
     -11     1     3     3     0     0 -5.560377789E+00  6.059180232E+00  1.105366888E+01  1.377733872E+01  5.110000000E-04  0.00000E+00  9.000E+00
      21     1     1     2   501   502 -2.185977098E+00 -5.421566088E+00 -3.451838525E+01  3.500986711E+01  4.518318379E-07  0.00000E+00  9.000E+00
      21     1     1     2   511   501  4.478282677E-01  3.732965371E+00 -1.755859963E+00  4.149533085E+00  1.040654444E-07  0.00000E+00  9.000E+00
#rwgt            1          21   6.9342213177563758         54217137      199460           0
</event>
<event>
      7  10001  1.41997E+02  2.43978E+01 -1.00000E+00  1.59545E-01
       2    -1     0     0   501     0  0.000000000E+00  0.000000000E+00  4.523740538E+02  4.523740538E+02  3.736056478E-06  0.00000E+00  9.000E+00
      -2    -1     0     0     0   502  0.000000000E+00  0.000000000E+00 -9.302482765E+00  9.302482765E+00  2.051275822E-08  0.00000E+00  9.000E+00
      23     2     1     2     0     0  1.405675148E+01 -1.916135478E+01  4.031834145E+02  4.122364894E+02  8.256698915E+01  0.00000E+00  9.000E+00
      11     1     3     3     0     0  3.932139565E+01  1.349415459E+01  2.567425283E+02  2.600865052E+02  5.110000000E-04  0.00000E+00  9.000E+00
     -11     1     3     3     0     0 -2.526464417E+01 -3.265550937E+01  1.464408863E+02  1.521499843E+02  5.110000000E-04  0.00000E+00  9.000E+00
       5     1     1     2   501     0 -1.081565601E+01  1.636602736E+00  1.951643663E+01  2.237293414E+01  0.000000000E+00  0.00000E+00  9.000E+00
      -5     1     1     2     0   502 -3.241095469E+00  1.752475205E+01  2.037171987E+01  2.706711297E+01  0.000000000E+00  0.00000E+00  9.000E+00
#rwgt            1          23   50.725052832409915         54217137      200205           0
</event>
<event>
      7  10001  1.41997E+02  1.18551E+01 -1.00000E+00  1.87580E-01
       1    -1     0     0   501     0  0.000000000E+00  0.000000000E+00  2.437182834E+02  2.437182834E+02  7.123316668E-07  0.00000E+00  9.000E+00
      -1    -1     0     0     0   502  0.000000000E+00  0.000000000E+00 -1.375831939E+01  1.375831939E+01  9.263506564E-08  0.00000E+00  9.000E+00
      23     2     1     2     0     0 -2.270741011E+00 -1.911222460E+00  1.682272968E+02  1.928673360E+02  9.427924958E+01  0.00000E+00  9.000E+00
      11     1     3     3     0     0  7.467598156E+00 -6.525478854E+00 -1.013503310E+01  1.417976702E+01  5.110000000E-04  0.00000E+00  9.000E+00
     -11     1     3     3     0     0 -9.738339167E+00  4.614256393E+00  1.783623299E+02  1.786875690E+02  5.110000000E-04  0.00000E+00  9.000E+00
      21     1     1     2   511   502  2.541195905E+00  9.006962956E-01  6.294800849E+01  6.300571961E+01  8.041184059E-07  0.00000E+00  9.000E+00
      21     1     1     2   501   511 -2.704548944E-01  1.010526165E+00 -1.215341260E+00  1.603547117E+00  3.493834992E-07  0.00000E+00  9.000E+00
#rwgt            1          21   475.78769523844915         54217137      200420           0
</event>
<event>
      7  10001  1.41997E+02  4.32176E+00 -1.00000E+00  2.55788E-01
      -2    -1     0     0     0   502  0.000000000E+00  0.000000000E+00  1.031599135E+02  1.031599135E+02  8.256698655E-07  0.00000E+00  9.000E+00
       2    -1     0     0   512     0  0.000000000E+00  0.000000000E+00 -5.175092108E+01  5.175092108E+01  4.191840927E-07  0.00000E+00  9.000E+00
      23     2     1     2     0     0 -1.006213305E+01 -5.597813637E-01  6.655253158E+01  1.137422356E+02  9.168695011E+01  0.00000E+00  9.000E+00
      11     1     3     3     0     0  2.384184193E+01 -1.638790753E+01 -8.266559353E+00  3.008875111E+01  5.110000000E-04  0.00000E+00  9.000E+00
     -11     1     3     3     0     0 -3.390397498E+01  1.582812617E+01  7.481909094E+01  8.365348448E+01  5.110000000E-04  0.00000E+00  9.000E+00
      21     1     1     2   501   502  5.769566838E+00  1.061304021E+00  1.217272590E+01  1.351256909E+01  4.408818507E-07  0.00000E+00  9.000E+00
      21     1     1     2   512   501  4.292566216E+00 -5.015226569E-01 -2.731626509E+01  2.765602987E+01  2.671260419E-07  0.00000E+00  9.000E+00
#rwgt            1           8   8.3964832806915961         54217137      200641           0
</event>
<event>
      7  10001  1.41997E+02  4.96200E+00 -1.00000E+00  2.43196E-01
       1    -1     0     0   501     0  0.000000000E+00  0.000000000E+00  3.699223252E+01  3.699223252E+01  1.569265792E-07  0.00000E+00  9.000E+00
      -1    -1     0     0     0   502  0.000000000E+00  0.000000000E+00 -1.062823380E+02  1.062823380E+02  9.406970301E-07  0.00000E+00  9.000E+00
      23     2     1     2     0     0 -2.349509089E+01  9.055413143E+00 -6.041190262E+01  1.129320460E+02  9.203276178E+01  0.00000E+00  9.000E+00
      11     1     3     3     0     0  2.752059072E+01 -2.161871146E+01 -1.507123294E+01  3.810372241E+01  5.110000000E-04  0.00000E+00  9.000E+00
     -11     1     3     3     0     0 -5.101568161E+01  3.067412460E+01 -4.534066969E+01  7.482832364E+01  5.110000000E-04  0.00000E+00  9.000E+00
      21     1     1     2   511   502  2.500127392E+01 -8.185046011E+00 -1.013992120E+01  2.819355738E+01  4.974103335E-07  0.00000E+00  9.000E+00
      21     1     1     2   501   511 -1.506183034E+00 -8.703671318E-01  1.261718374E+00  2.148967085E+00  4.930151324E-08  0.00000E+00  9.000E+00
#rwgt            1          21   40.124394974338287         54217137      200861           0
</event>
<event>
      7  10001  1.41997E+02  1.36272E+01 -1.00000E+00  1.81399E-01
      21    -1     0     0   502   501  0.000000000E+00  0.000000000E+00  1.871862239E+02  1.871862239E+02  8.120702350E-07  0.00000E+00  9.000E+00
       2    -1     0     0   501     0  0.000000000E+00  0.000000000E+00 -1.849522799E+01  1.849522799E+01  8.805054356E-08  0.00000E+00  9.000E+00
      23     2     1     2     0     0  1.494363384E+01  7.639837141E+00  1.055183087E+02  1.393327853E+02  8.943060036E+01  0.00000E+00  9.000E+00
      11     1     3     3     0     0  3.762838888E+01  2.257787634E+01  1.031163871E+02  1.120653623E+02  5.110000000E-04  0.00000E+00  9.000E+00
     -11     1     3     3     0     0 -2.268475503E+01 -1.493803920E+01  2.401921596E+00  2.726742294E+01  5.110000000E-04  0.00000E+00  9.000E+00
       2     1     1     2   512     0 -8.760288845E+00  1.736617625E+00  2.445202401E+01  2.603190311E+01  0.000000000E+00  0.00000E+00  9.000E+00
      21     1     1     2   502   512 -6.183344998E+00 -9.376454766E+00  3.872066326E+01  4.031676354E+01  4.721544030E-07  0.00000E+00  9.000E+00
#rwgt            1          17   1.6588612050555396         54217137      201522           0
</event>
<event>
      7  10001  1.41997E+02  4.41616E+00 -1.00000E+00  2.53729E-01
       2    -1     0     0   501     0  0.000000000E+00  0.000000000E+00  8.732995705E+01  8.732995705E+01  2.793178590E-07  0.00000E+00  9.000E+00
      -2    -1     0     0     0   502  0.000000000E+00  0.000000000E+00 -3.206415790E+01  3.206415790E+01  3.034249531E-07  0.00000E+00  9.000E+00
      23     2     1     2     0     0 -8.219790365E+00  5.294616512E+00  3.108393399E+01  9.289994166E+01  8.699764532E+01  0.00000E+00  9.000E+00
      11     1     3     3     0     0 -1.585068971E+01 -2.071779650E+01  5.232092741E+01  5.846324402E+01  5.110000000E-04  0.00000E+00  9.000E+00
     -11     1     3     3     0     0  7.630899341E+00  2.601241301E+01 -2.123699342E+01  3.443669765E+01  5.110000000E-04  0.00000E+00  9.000E+00
      21     1     1     2   501   511  2.404034933E+00 -3.818185834E+00  1.360760257E+01  1.433613528E+01  6.890767317E-07  0.00000E+00  9.000E+00
      21     1     1     2   511   502  5.815755432E+00 -1.476430679E+00  1.057426259E+01  1.215803800E+01  5.729745586E-07  0.00000E+00  9.000E+00
#rwgt            1          23   406.21470487187264         54217137      201645           0
</event>
<event>
      7  10001  1.41997E+02  1.21111E+01 -1.00000E+00  1.86604E-01
       2    -1     0     0   501     0  0.000000000E+00  0.000000000E+00  3.001136572E+02  3.001136572E+02  2.098181055E-06  0.00000E+00  9.000E+00
      -2    -1     0     0     0   512  0.000000000E+00  0.000000000E+00 -1.167119378E+01  1.167119378E+01  1.072916677E-07  0.00000E+00  9.000E+00
      23     2     1     2     0     0 -9.624333850E+00  4.061545355E+00  2.487270877E+02  2.647937096E+02  9.022982059E+01  0.00000E+00  9.000E+00
      11     1     3     3     0     0 -6.412307838E+00  3.446135868E+01  2.202294231E+02  2.230015734E+02  5.110000000E-04  0.00000E+00  9.000E+00
     -11     1     3     3     0     0 -3.212026013E+00 -3.039981332E+01  2.849766467E+01  4.179213626E+01  5.110000000E-04  0.00000E+00  9.000E+00
      21     1     1     2   501   502  1.016381899E+01  8.037565967E+00  1.907662359E+01  2.306129335E+01  4.294110030E-07  0.00000E+00  9.000E+00
      21     1     1     2   502   512 -5.394851383E-01 -1.209911132E+01  2.063875211E+01  2.392984805E+01  2.843015914E-07  0.00000E+00  9.000E+00
#rwgt            1          23   285.39135753754266         54217137      202420           0
</event>
<event>
      7  10001  1.41997E+02  5.55917E+00 -1.00000E+00  2.30739E-01
       1    -1     0     0   501     0  0.000000000E+00  0.000000000E+00  5.242442333E+01  5.242442333E+01  2.405768405E-07  0.00000E+00  9.000E+00
      -1    -1     0     0     0   511  0.000000000E+00  0.000000000E+00 -7.889304397E+01  7.889304397E+01  5.933088071E-07  0.00000E+00  9.000E+00
      23     2     1     2     0     0  3.663945737E+00  2.796903416E+01 -2.787335211E+01  1.003680128E+02  9.220153394E+01  0.00000E+00  9.000E+00
      11     1     3     3     0     0 -4.187708546E+01  2.440122038E+01 -2.515500116E+01  5.460662896E+01  5.110000000E-04  0.00000E+00  9.000E+00
     -11     1     3     3     0     0  4.554103119E+01  3.567813782E+00 -2.718350944E+00  4.576138382E+01  5.110000000E-04  0.00000E+00  9.000E+00
      21     1     1     2   501   502 -6.187979844E+00 -2.301589561E+01  4.969114614E+00  2.434573157E+01  8.010088199E-07  0.00000E+00  9.000E+00
      21     1     1     2   502   511  2.524034107E+00 -4.953138548E+00 -3.564383147E+00  6.603722955E+00  8.228835838E-08  0.00000E+00  9.000E+00
#rwgt            1          21   384.31017218837536         54217137      202590           0
</event>
<event>
      7  10001  1.41997E+02  4.42861E+01 -1.00000E+00  1.42148E-01
       2    -1     0     0   501     0  0.000000000E+00  0.000000000E+00  4.940677298E+01  4.940677298E+01  2.018888728E-07  0.00000E+00  9.000E+00
      -2    -1     0     0     0   502  0.000000000E+00  0.000000000E+00 -1.027259181E+02  1.027259181E+02  8.813684486E-07  0.00000E+00  9.000E+00
      23     2     1     2     0     0  1.595192970E+01  2.893929520E+01 -3.677285801E+01  1.004953191E+02  8.749353808E+01  0.00000E+00  9.000E+00
      11     1     3     3     0     0  2.745971329E+01  3.611022509E+01 -5.902095739E+01  7.444096736E+01  5.110000000E-04  0.00000E+00  9.000E+00
     -11     1     3     3     0     0 -1.150778359E+01 -7.170929890E+00  2.224809937E+01  2.605435174E+01  5.110000000E-04  0.00000E+00  9.000E+00
      21     1     1     2   501   511  2.152539077E+00 -1.079665537E+01  9.902278182E+00  1.480730579E+01  7.204096888E-07  0.00000E+00  9.000E+00
      21     1     1     2   511   502 -1.810446877E+01 -1.814263983E+01 -2.644856527E+01  3.683006618E+01  1.695418608E-06  0.00000E+00  9.000E+00
#rwgt            1          23   57.187904743142148         54217137      203105           0
</event>
<event>
      7  10001  1.41997E+02  1.08168E+01 -1.00000E+00  1.91892E-01
       1    -1     0     0   501     0  0.000000000E+00  0.000000000E+00  3.030426856E+02  3.030426856E+02  2.591946814E-06  0.00000E+00  9.000E+00
      21    -1     0     0   502   512  0.000000000E+00  0.000000000E+00 -9.712113771E+01  9.712113771E+01  6.650668218E-07  0.00000E+00  9.000E+00
      23     2     1     2     0     0  3.011068057E+01 -5.851612500E+00  2.873378768E+02  3.024867305E+02  8.941069405E+01  0.00000E+00  9.000E+00
      11     1     3     3     0     0  1.093547767E+01  1.151553488E+01  2.718925837E+02  2.723559606E+02  5.110000000E-04  0.00000E+00  9.000E+00
     -11     1     3     3     0     0  1.917520291E+01 -1.736714738E+01  1.544529320E+01  3.013076994E+01  5.110000000E-04  0.00000E+00  9.000E+00
       1     1     1     2   502     0 -1.932060776E+01  6.611050180E+00 -5.712427161E+00  2.120433193E+01  0.000000000E+00  0.00000E+00  9.000E+00
      21     1     1     2   501   512 -1.079007282E+01 -7.594376793E-01 -7.570390176E+01  7.647276090E+01  7.364473802E-07  0.00000E+00  9.000E+00
#rwgt            1          22   384.11934514573704         54217137      203252           0
</event>
<event>
      7  10001  1.41997E+02  7.19220E+00 -1.00000E+00  2.13899E-01
       2    -1     0     0   501     0  0.000000000E+00  0.000000000E+00  8.387062540E+01  8.387062540E+01  2.204438528E-07  0.00000E+00  9.000E+00
      -1    -1     0     0     0   501  0.000000000E+00  0.000000000E+00 -3.272715418E+02  3.272715418E+02  2.566732943E-06  0.00000E+00  9.000E+00
      23     2     1     2     0     0 -4.855480033E-01 -1.589147132E+00  5.198620468E+01  1.100844054E+02  9.702190314E+01  0.00000E+00  9.000E+00
      11     1     3     3     0     0  2.037652581E+01 -1.014523843E+01  7.469271133E+01  7.808411998E+01  5.110000000E-04  0.00000E+00  9.000E+00
     -11     1     3     3     0     0 -2.086207382E+01  8.556091294E+00 -2.270650665E+01  3.200028542E+01  5.110000000E-04  0.00000E+00  9.000E+00
       2     1     1     2   502     0 -5.627189366E+00 -2.200606141E+00 -4.781134271E-01  6.061065913E+00  0.000000000E+00  0.00000E+00  9.000E+00
      -1     1     1     2     0   502  6.112737370E+00  3.789753273E+00 -2.949090077E+02  2.949966959E+02  0.000000000E+00  0.00000E+00  9.000E+00
#rwgt            1          24   7.8387727707297241         54217137      203465           0
</event>
<event>
      7  10001  1.41997E+02  6.25633E+00 -1.00000E+00  2.22681E-01
       2    -1     0     0   501     0  0.000000000E+00  0.000000000E+00  3.759113082E+01  3.759113082E+01  2.059922366E-07  0.00000E+00  9.000E+00
      -2    -1     0     0     0   502  0.000000000E+00  0.000000000E+00 -8.058372836E+01  8.058372836E+01  9.665794832E-08  0.00000E+00  9.000E+00
      23     2     1     2     0     0  1.323028679E+01  3.698201985E+00 -3.938757630E+01  1.001552486E+02  9.105479382E+01  0.00000E+00  9.000E+00
      11     1     3     3     0     0 -5.595181798E+00  4.242523828E+01 -3.775029074E+01  5.706392340E+01  5.110000000E-04  0.00000E+00  9.000E+00
     -11     1     3     3     0     0  1.882546859E+01 -3.872703630E+01 -1.637285566E+00  4.309132525E+01  5.110000000E-04  0.00000E+00  9.000E+00
      21     1     1     2   511   502 -1.186321816E+01 -1.335289880E+00  1.695001905E+00  1.205785949E+01  1.050997690E-06  0.00000E+00  9.000E+00
      21     1     1     2   501   511 -1.367068633E+00 -2.362912105E+00 -5.300023136E+00  5.961751043E+00  2.093145920E-07  0.00000E+00  9.000E+00
#rwgt            1          23   3.1420782356273604         54217137      203582           0
</event>
<event>
      7  10001  1.41997E+02  8.35936E+00 -1.00000E+00  2.05201E-01
       2    -1     0     0   501     0  0.000000000E+00  0.000000000E+00  1.055956674E+02  1.055956674E+02  7.133294604E-07  0.00000E+00  9.000E+00
      -2    -1     0     0     0   512  0.000000000E+00  0.000000000E+00 -4.148962810E+01  4.148962810E+01  3.351205834E-07  0.00000E+00  9.000E+00
      23     2     1     2     0     0 -3.237809585E+00 -9.906410293E+00  6.929211502E+01  1.173501362E+02  9.413308066E+01  0.00000E+00  9.000E+00
      11     1     3     3     0     0 -1.649144169E+01 -8.777813563E+00  9.044954801E+01  9.235874834E+01  5.110000000E-04  0.00000E+00  9.000E+00
     -11     1     3     3     0     0  1.325363211E+01 -1.128596730E+00 -2.115743298E+01  2.499138782E+01  5.110000000E-04  0.00000E+00  9.000E+00
      21     1     1     2   501   502  9.116347005E+00  3.963211269E+00  8.908388115E+00  1.334819108E+01  2.403122496E-07  0.00000E+00  9.000E+00
      21     1     1     2   502   512 -5.878537421E+00  5.943199023E+00 -1.409446385E+01  1.638696824E+01  2.496460266E-07  0.00000E+00  9.000E+00
#rwgt            1          23   17.336314571442340         54217137      204079           0
</event>
<event>
      7  10001  1.41997E+02  1.83582E+01 -1.00000E+00  1.69495E-01
      21    -1     0     0   502   501  0.000000000E+00  0.000000000E+00  5.671770510E+01  5.671770510E+01  3.408674421E-07  0.00000E+00  9.000E+00
       1    -1     0     0   511     0  0.000000000E+00  0.000000000E+00 -1.111665571E+02  1.111665571E+02  7.160203092E-07  0.00000E+00  9.000E+00
      23     2     1     2     0     0 -1.581108474E+01  9.314290322E+00  1.118326281E+00  9.265438452E+01  9.081210224E+01  0.00000E+00  9.000E+00
      11     1     3     3     0     0  3.533747343E+00 -1.770916558E+01  3.856706882E+01  4.258545190E+01  5.110000000E-04  0.00000E+00  9.000E+00
     -11     1     3     3     0     0 -1.934483208E+01  2.702345590E+01 -3.744874254E+01  5.006893263E+01  5.110000000E-04  0.00000E+00  9.000E+00
       1     1     1     2   502     0  3.095481970E+01  1.063191025E+00 -4.295326221E+01  5.295577374E+01  0.000000000E+00  0.00000E+00  9.000E+00
      21     1     1     2   511   501 -1.514373497E+01 -1.037748135E+01 -1.261391608E+01  2.227410395E+01  2.550189463E-07  0.00000E+00  9.000E+00
#rwgt            1          16   1.8095735640370223         54217137      204294           0
</event>
<event>
      7  10001  1.41997E+02  2.35918E+01 -1.00000E+00  1.60657E-01
       2    -1     0     0   501     0  0.000000000E+00  0.000000000E+00  9.404781313E+01  9.404781313E+01  7.619330878E-07  0.00000E+00  9.000E+00
      -2    -1     0     0     0   502  0.000000000E+00  0.000000000E+00 -6.050913960E+01  6.050913960E+01  2.224167692E-07  0.00000E+00  9.000E+00
      23     2     1     2     0     0 -3.619835266E+01 -2.042467048E+00 -1.435608408E+00  9.512345203E+01  8.793132404E+01  0.00000E+00  9.000E+00
      11     1     3     3     0     0 -1.974034647E+01  1.468164363E+01  4.031652073E+01  4.722979761E+01  5.110000000E-04  0.00000E+00  9.000E+00
     -11     1     3     3     0     0 -1.645800620E+01 -1.672411068E+01 -4.175212914E+01  4.789365443E+01  5.110000000E-04  0.00000E+00  9.000E+00
      21     1     1     2   501   511  2.896688673E+01 -1.256957775E+01  2.063310931E+01  3.772002136E+01  1.887393295E-06  0.00000E+00  9.000E+00
      21     1     1     2   511   502  7.231465937E+00  1.461204480E+01  1.434117263E+01  2.171347934E+01  9.214148625E-07  0.00000E+00  9.000E+00
#rwgt            1          23   15.059108734627518         54217137      204506           0
</event>
<event>
      7  10001  1.41997E+02  7.15481E+00 -1.00000E+00  2.14214E-01
       1    -1     0     0   501     0  0.000000000E+00  0.000000000E+00  3.151327111E+02  3.151327111E+02  1.978575510E-06  0.00000E+00  9.000E+00
      -1    -1     0     0     0   512  0.000000000E+00  0.000000000E+00 -1.304406332E+01  1.304406332E+01  4.167355648E-08  0.00000E+00  9.000E+00
      23     2     1     2     0     0 -8.838354934E+00 -1.205222463E+01  2.782218261E+02  2.932680562E+02  9.151718758E+01  0.00000E+00  9.000E+00
      11     1     3     3     0     0  2.553696058E+01  2.865279124E+01  1.389454372E+02  1.441490663E+02  5.110000000E-04  0.00000E+00  9.000E+00
     -11     1     3     3     0     0 -3.437531552E+01 -4.070501587E+01  1.392763890E+02  1.491189899E+02  5.110000000E-04  0.00000E+00  9.000E+00
      21     1     1     2   501   502  3.186690554E+00  1.643970300E+01  2.174551983E+01  2.744606464E+01  2.985439944E-07  0.00000E+00  9.000E+00
      21     1     1     2   502   512  5.651664380E+00 -4.387478369E+00  2.121301802E+00  7.462653552E+00  6.098797468E-08  0.00000E+00  9.000E+00
#rwgt            1          21   494.13551822714408         54217137      204697           0
</event>
<event>
      7  10001  1.41997E+02  4.25410E+00 -1.00000E+00  2.57315E-01
       2    -1     0     0   501     0  0.000000000E+00  0.000000000E+00  3.218874458E+01  3.218874458E+01  2.162684084E-07  0.00000E+00  9.000E+00
      -2    -1     0     0     0   502  0.000000000E+00  0.000000000E+00 -1.086523278E+02  1.086523278E+02  5.528812386E-07  0.00000E+00  9.000E+00
      23     2     1     2     0     0  3.406588014E+00 -6.576235159E+00 -3.451049188E+01  9.793184332E+01  9.134998728E+01  0.00000E+00  9.000E+00
      11     1     3     3     0     0  4.602887031E+01 -1.284909406E+01 -1.176900352E+01  4.921651719E+01  5.110000000E-04  0.00000E+00  9.000E+00
     -11     1     3     3     0     0 -4.262228230E+01  6.272858906E+00 -2.274148836E+01  4.871532613E+01  5.110000000E-04  0.00000E+00  9.000E+00
      21     1     1     2   501   511 -9.717804332E-01  1.784294813E+00 -2.591250574E+01  2.599203761E+01  3.600999760E-07  0.00000E+00  9.000E+00
      21     1     1     2   511   502 -2.434807581E+00  4.791940346E+00 -1.604058564E+01  1.691719149E+01  2.409221515E-07  0.00000E+00  9.000E+00
#rwgt            1          23   153.49858377842085         54217137      204995           0
</event>
<event>
      7  10001  1.41997E+02  1.16000E+01 -1.00000E+00  1.88585E-01
       2    -1     0     0   501     0  0.000000000E+00  0.000000000E+00  2.010118254E+02  2.010118254E+02  1.393530433E-06  0.00000E+00  9.000E+00
      -2    -1     0     0     0   502  0.000000000E+00  0.000000000E+00 -7.314936545E+00  7.314936545E+00  5.319026699E-08  0.00000E+00  9.000E+00
      23     2     1     2     0     0 -6.734743651E+00 -1.733861448E+00  1.406649074E+02  1.531938907E+02  6.027759881E+01  0.00000E+00  9.000E+00
      11     1     3     3     0     0  1.962441429E+01  1.834648549E+01  7.448687554E+01  7.918336817E+01  5.110000000E-04  0.00000E+00  9.000E+00
     -11     1     3     3     0     0 -2.635915794E+01 -2.008034694E+01  6.617803187E+01  7.401052252E+01  5.110000000E-04  0.00000E+00  9.000E+00
      21     1     1     2   512   502  1.773861828E+00 -5.750682888E-01  4.680975342E+01  4.684688149E+01  2.900544870E-07  0.00000E+00  9.000E+00
      21     1     1     2   501   512  4.960881823E+00  2.308929737E+00  6.222228005E+00  8.285989762E+00  1.625784594E-07  0.00000E+00  9.000E+00
#rwgt            1          23   213.24865035403334         54217137      205887           0
</event>
<event>
      7  10001  1.41997E+02  2.68638E+00 -1.00000E+00  3.12209E-01
       2    -1     0     0   501     0  0.000000000E+00  0.000000000E+00  4.373965273E+00  4.373965273E+00  2.886809431E-08  0.00000E+00  9.000E+00
      -2    -1     0     0     0   502  0.000000000E+00  0.000000000E+00 -6.883126245E+02  6.883126245E+02  4.919522744E-06  0.00000E+00  9.000E+00
      23     2     1     2     0     0 -1.448935600E+00 -1.524274454E+01 -5.912947492E+02  5.984336429E+02  9.087851168E+01  0.00000E+00  9.000E+00
      11     1     3     3     0     0  9.394938699E+00 -2.159193751E+01 -3.612579611E+01  4.312249742E+01  5.110000000E-04  0.00000E+00  9.000E+00
     -11     1     3     3     0     0 -1.084387430E+01  6.349192962E+00 -5.551689531E+02  5.553111455E+02  5.110000000E-04  0.00000E+00  9.000E+00
      21     1     1     2   511   502 -1.193709337E-01  1.568123073E+01 -8.545002275E+01  8.687704895E+01  5.109845333E-07  0.00000E+00  9.000E+00
      21     1     1     2   501   511  1.568306534E+00 -4.384861888E-01 -7.193887316E+00  7.375897928E+00  1.078199460E-07  0.00000E+00  9.000E+00
#rwgt            1          23   10.453428326706083         54217137      206087           0
</event>
<event>
      7  10001  1.41997E+02  6.65621E+00 -1.00000E+00  2.18686E-01
      21    -1     0     0   501   512  0.000000000E+00  0.000000000E+00  1.278660344E+02  1.278660344E+02  9.394603530E-07  0.00000E+00  9.000E+00
      -2    -1     0     0     0   502  0.000000000E+00  0.000000000E+00 -4.389527245E+01  4.389527245E+01  2.772973304E-07  0.00000E+00  9.000E+00
      23     2     1     2     0     0 -1.711398089E+00 -4.226929322E+00  1.030652490E+01  9.199616160E+01  9.130319534E+01  0.00000E+00  9.000E+00
      11     1     3     3     0     0  3.179760093E+01 -3.067670073E+01 -9.086282068E+00  4.510773675E+01  5.110000000E-04  0.00000E+00  9.000E+00
     -11     1     3     3     0     0 -3.350899902E+01  2.644977141E+01  1.939280697E+01  4.688842486E+01  5.110000000E-04  0.00000E+00  9.000E+00
      21     1     1     2   501   502 -4.906866293E+00  3.517182482E+00  2.422594655E-01  6.042069106E+00  3.062411665E-07  0.00000E+00  9.000E+00
      -2     1     1     2     0   512  6.618264382E+00  7.097468400E-01  7.342197760E+01  7.372307616E+01  0.000000000E+00  0.00000E+00  9.000E+00
#rwgt            1          23   19.029510375754150         54217137      207475           0
</event>
<event>
      7  10001  1.41997E+02  7.55417E+00 -1.00000E+00  2.10975E-01
       1    -1     0     0   501     0  0.000000000E+00  0.000000000E+00  2.243218668E+02  2.243218668E+02  9.364043231E-07  0.00000E+00  9.000E+00
      21    -1     0     0   511   501  0.000000000E+00  0.000000000E+00 -1.796447170E+01  1.796447170E+01  1.048188290E-07  0.00000E+00  9.000E+00
      23     2     1     2     0     0 -4.601624294E+00  1.809660963E+01  2.026842622E+02  2.224461273E+02  8.973687738E+01  0.00000E+00  9.000E+00
      11     1     3     3     0     0  3.610055803E+01 -6.240503112E+00  1.344393914E+02  1.393418247E+02  5.110000000E-04  0.00000E+00  9.000E+00
     -11     1     3     3     0     0 -4.070218233E+01  2.433711274E+01  6.824487086E+01  8.310430254E+01  5.110000000E-04  0.00000E+00  9.000E+00
       1     1     1     2   502     0  5.481613841E+00 -1.059386878E+01  2.627652866E+00  1.221403723E+01  0.000000000E+00  0.00000E+00  9.000E+00
      21     1     1     2   511   502 -8.799895475E-01 -7.502740850E+00  1.045480065E+00  7.626174036E+00  8.043166141E-08  0.00000E+00  9.000E+00
#rwgt            1          22   54.131610626047127         54217137      207601           0
</event>
<event>
      7  10001  1.41997E+02  3.50737E+01 -1.00000E+00  1.48469E-01
       1    -1     0     0   501     0  0.000000000E+00  0.000000000E+00  5.379999754E+01  5.379999754E+01  4.455074568E-07  0.00000E+00  9.000E+00
      21    -1     0     0   502   501  0.000000000E+00  0.000000000E+00 -1.331023627E+02  1.331023627E+02  4.135080741E-07  0.00000E+00  9.000E+00
      23     2     1     2     0     0 -2.415415184E+01 -5.091658471E+00 -8.736994622E+01  1.284012547E+02  9.079662249E+01  0.00000E+00  9.000E+00
      11     1     3     3     0     0  3.167309861E+01 -1.666156619E+01 -2.364169862E+01  4.289199083E+01  5.110000000E-04  0.00000E+00  9.000E+00
     -11     1     3     3     0     0 -5.582725045E+01  1.156990772E+01 -6.372824761E+01  8.550926383E+01  5.110000000E-04  0.00000E+00  9.000E+00
       1     1     1     2   511     0  5.857727343E+00  9.743458803E+00  2.849911601E+01  3.068301766E+01  0.000000000E+00  0.00000E+00  9.000E+00
      21     1     1     2   502   511  1.829642450E+01 -4.651800331E+00 -2.043153493E+01  2.781808792E+01  7.719369481E-07  0.00000E+00  9.000E+00
#rwgt            1          22   6.1010864699058214         54217137      207929           0
</event>
<event>
      7  10001  1.41997E+02  2.90368E+01 -1.00000E+00  1.54028E-01
       2    -1     0     0   501     0  0.000000000E+00  0.000000000E+00  2.647819972E+02  2.647819972E+02  5.712466430E-07  0.00000E+00  9.000E+00
      21    -1     0     0   512   502  0.000000000E+00  0.000000000E+00 -4.471969785E+01  4.471969785E+01  2.866707372E-07  0.00000E+00  9.000E+00
      23     2     1     2     0     0  1.702981223E+01 -2.684450450E+01  2.202695713E+02  2.389659969E+02  8.703689843E+01  0.00000E+00  9.000E+00
      11     1     3     3     0     0  2.410381374E+01 -1.828176414E+01  1.567897941E+01  3.407414170E+01  5.110000000E-04  0.00000E+00  9.000E+00
     -11     1     3     3     0     0 -7.074001516E+00 -8.562740358E+00  2.045905919E+02  2.048918552E+02  5.110000000E-04  0.00000E+00  9.000E+00
      21     1     1     2   501   502 -2.944819248E+01  5.972103011E-01 -1.981452479E+01  3.549884636E+01  1.919668227E-06  0.00000E+00  9.000E+00
       2     1     1     2   512     0  1.241838025E+01  2.624729420E+01  1.960725280E+01  3.503685179E+01  0.000000000E+00  0.00000E+00  9.000E+00
#rwgt            1          23   27.479458195346513         54217137      208353           0
</event>
<event>
      7  10001  1.41997E+02  1.38176E+01 -1.00000E+00  1.80806E-01
       2    -1     0     0   511     0  0.000000000E+00  0.000000000E+00  1.055188275E+02  1.055188275E+02  4.487018337E-07  0.00000E+00  9.000E+00
      -2    -1     0     0     0   502  0.000000000E+00  0.000000000E+00 -3.934363887E+01  3.934363887E+01  3.241475029E-07  0.00000E+00  9.000E+00
      23     2     1     2     0     0  8.632064258E+00  3.384834970E+00  5.096577745E+01  1.044750952E+02  9.072797480E+01  0.00000E+00  9.000E+00
      11     1     3     3     0     0  1.689569301E+01 -2.232649332E+01 -1.601444629E+01  3.225522030E+01  5.110000000E-04  0.00000E+00  9.000E+00
     -11     1     3     3     0     0 -8.263628751E+00  2.571132830E+01  6.698022375E+01  7.221987494E+01  5.110000000E-04  0.00000E+00  9.000E+00
      21     1     1     2   501   502 -2.005497639E+01 -1.115930339E+01  5.806093518E+00  2.367367424E+01  7.675735567E-07  0.00000E+00  9.000E+00
      21     1     1     2   511   501  1.142291213E+01  7.774468422E+00  9.403317652E+00  1.671369689E+01  3.072314992E-07  0.00000E+00  9.000E+00
#rwgt            1          23   26.131528588729061         54217137      208601           0
</event>
<event>
      7  10001  1.41997E+02  1.40024E+01 -1.00000E+00  1.80243E-01
      21    -1     0     0   501   511  0.000000000E+00  0.000000000E+00  4.520724940E+01  4.520724940E+01  3.353739553E-07  0.00000E+00  9.000E+00
      -1    -1     0     0     0   502  0.000000000E+00  0.000000000E+00 -4.264381585E+02  4.264381585E+02  2.757343997E-06  0.00000E+00  9.000E+00
      23     2     1     2     0     0 -1.099350162E+01  2.351653588E+00 -3.904612612E+02  4.012264225E+02  9.163109879E+01  0.00000E+00  9.000E+00
      11     1     3     3     0     0 -2.908684089E+01 -3.036143898E+01 -1.016037446E+02  1.099599118E+02  5.110000000E-04  0.00000E+00  9.000E+00
     -11     1     3     3     0     0  1.809333926E+01  3.271309257E+01 -2.888575167E+02  2.912665108E+02  5.110000000E-04  0.00000E+00  9.000E+00
      21     1     1     2   501   502  2.205745853E+01  6.230654388E+00 -2.471000444E+01  3.370366227E+01  6.872738922E-07  0.00000E+00  9.000E+00
      -1     1     1     2     0   511 -1.106395690E+01 -8.582307977E+00  3.394035652E+01  3.671532314E+01  0.000000000E+00  0.00000E+00  9.000E+00
#rwgt            1          21   44.962583440779945         54217137      208822           0
</event>
<event>
      7  10001  1.41997E+02  4.68114E+00 -1.00000E+00  2.48345E-01
      -1    -1     0     0     0   502  0.000000000E+00  0.000000000E+00  1.695182780E+02  1.695182780E+02  8.259273939E-07  0.00000E+00  9.000E+00
       1    -1     0     0   501     0  0.000000000E+00  0.000000000E+00 -1.738283939E+01  1.738283939E+01  6.827571477E-08  0.00000E+00  9.000E+00
      23     2     1     2     0     0 -8.560766271E+00  4.874402250E+00  1.296601356E+02  1.612124623E+02  9.529250087E+01  0.00000E+00  9.000E+00
      11     1     3     3     0     0  2.490826714E+01  1.842202181E+01  4.941224768E+00  3.137209527E+01  5.110000000E-04  0.00000E+00  9.000E+00
     -11     1     3     3     0     0 -3.346903341E+01 -1.354761956E+01  1.247189108E+02  1.298403670E+02  5.110000000E-04  0.00000E+00  9.000E+00
      21     1     1     2   511   502  8.890881511E+00 -1.459941786E+00  1.634852174E+01  1.866690567E+01  3.745621765E-07  0.00000E+00  9.000E+00
      21     1     1     2   501   511 -3.301152394E-01 -3.414460464E+00  6.126781340E+00  7.021749491E+00  2.391197590E-07  0.00000E+00  9.000E+00
#rwgt            1          10   2.6634098674291389         54217137      209069           0
</event>
<event>
      7  10001  1.41997E+02  7.80825E+00 -1.00000E+00  2.09053E-01
       2    -1     0     0   501     0  0.000000000E+00  0.000000000E+00  7.101475900E+00  7.101475900E+00  5.614981923E-08  0.00000E+00  9.000E+00
      -2    -1     0     0     0   502  0.000000000E+00  0.000000000E+00 -4.234364948E+02  4.234364948E+02  3.550841216E-06  0.00000E+00  9.000E+00
      23     2     1     2     0     0  2.773907015E+00  4.624729894E+00 -2.811442033E+02  2.951017169E+02  8.952026349E+01  0.00000E+00  9.000E+00
      11     1     3     3     0     0 -1.152631452E+01  4.183011611E+01 -2.005474247E+02  2.051874364E+02  5.110000000E-04  0.00000E+00  9.000E+00
     -11     1     3     3     0     0  1.430022154E+01 -3.720538621E+01 -8.059677866E+01  8.991428045E+01  5.110000000E-04  0.00000E+00  9.000E+00
      21     1     1     2   512   502  1.458190334E+00 -2.827798738E-01 -5.354983673E+01  5.357043305E+01  7.947258519E-07  0.00000E+00  9.000E+00
      21     1     1     2   501   512 -4.232097349E+00 -4.341950020E+00 -8.164097885E+01  8.186582074E+01  1.992538663E-07  0.00000E+00  9.000E+00
#rwgt            1          23   115.10399130986085         54217137      209392           0
</event>
<event>
      7  10001  1.41997E+02  1.24263E+01 -1.00000E+00  1.85444E-01
      -1    -1     0     0     0   502  0.000000000E+00  0.000000000E+00  1.309515044E+02  1.309515044E+02  1.273481482E-06  0.00000E+00  9.000E+00
       1    -1     0     0   501     0  0.000000000E+00  0.000000000E+00 -3.522341996E+01  3.522341996E+01  3.160914362E-07  0.00000E+00  9.000E+00
      23     2     1     2     0     0 -4.896445963E+00  5.799046111E+00  2.921765570E+01  9.363810997E+01  8.863870552E+01  0.00000E+00  9.000E+00
      11     1     3     3     0     0  3.015321102E+01  6.103547523E+00 -1.737592672E+01  3.533259482E+01  5.110000000E-04  0.00000E+00  9.000E+00
     -11     1     3     3     0     0 -3.504965698E+01 -3.045014112E-01  4.659358241E+01  5.830551516E+01  5.110000000E-04  0.00000E+00  9.000E+00
      21     1     1     2   501   511  4.079253537E-01 -3.169220459E+00  6.721165998E+01  6.728757388E+01  3.358679923E-06  0.00000E+00  9.000E+00
      21     1     1     2   511   502  4.488520609E+00 -2.629825652E+00 -7.012312632E-01  5.249240469E+00  4.337318197E-07  0.00000E+00  9.000E+00
#rwgt            1          10   5.3157550298038663         54217137      209764           0
</event>
<event>
      7  10001  1.41997E+02  8.75191E+00 -1.00000E+00  2.02692E-01
       2    -1     0     0   501     0  0.000000000E+00  0.000000000E+00  3.074223116E+01  3.074223116E+01  1.260676061E-07  0.00000E+00  9.000E+00
      -2    -1     0     0     0   502  0.000000000E+00  0.000000000E+00 -1.396618489E+02  1.396618489E+02  4.960099053E-07  0.00000E+00  9.000E+00
      23     2     1     2     0     0 -2.996283684E+00  8.305812843E+00 -2.915231230E+01  8.981460640E+01  8.449166804E+01  0.00000E+00  9.000E+00
      11     1     3     3     0     0 -2.413099871E+01  2.718212256E+00 -5.249139816E+01  5.783632646E+01  5.110000000E-04  0.00000E+00  9.000E+00
     -11     1     3     3     0     0  2.113471503E+01  5.587600588E+00  2.333908586E+01  3.197827995E+01  5.110000000E-04  0.00000E+00  9.000E+00
       2     1     1     2   501     0  4.359715568E+00 -5.084626729E+00 -3.195487653E+01  3.264926773E+01  0.000000000E+00  0.00000E+00  9.000E+00
      -2     1     1     2     0   502 -1.363431884E+00 -3.221186113E+00 -4.781242886E+01  4.794020588E+01  0.000000000E+00  0.00000E+00  9.000E+00
#rwgt            1          23   56.563409383801030         54217137      210077           0
</event>
<event>
      7  10001  1.41997E+02  6.05405E+00 -1.00000E+00  2.24863E-01
      -1    -1     0     0     0   502  0.000000000E+00  0.000000000E+00  3.366558715E+01  3.366558715E+01  2.749966297E-07  0.00000E+00  9.000E+00
       1    -1     0     0   511     0  0.000000000E+00  0.000000000E+00 -8.320160211E+01  8.320160211E+01  4.949558362E-07  0.00000E+00  9.000E+00
      23     2     1     2     0     0  7.697739628E-02  1.745710236E+01 -4.492982187E+01  9.548325912E+01  8.242334336E+01  0.00000E+00  9.000E+00
      11     1     3     3     0     0 -6.298982558E+00  2.448363959E+00 -6.738979015E+01  6.772780436E+01  5.110000000E-04  0.00000E+00  9.000E+00
     -11     1     3     3     0     0  6.375959954E+00  1.500873840E+01  2.245996828E+01  2.775545476E+01  5.110000000E-04  0.00000E+00  9.000E+00
      21     1     1     2   501   502 -2.838426928E+00 -1.206952911E+01  1.846835932E+00  1.253558947E+01  7.880758522E-07  0.00000E+00  9.000E+00
      21     1     1     2   511   501  2.761449532E+00 -5.387573255E+00 -6.453029024E+00  8.848340674E+00  1.078446134E-07  0.00000E+00  9.000E+00
#rwgt            1          10   5.7112807986025329         54217137      210685           0
</event>
<event>
      7  10001  1.41997E+02  1.85765E+00 -1.00000E+00  3.78711E-01
       2    -1     0     0   501     0  0.000000000E+00  0.000000000E+00  1.497646249E+01  1.497646249E+01  3.626320464E-08  0.00000E+00  9.000E+00
      -2    -1     0     0     0   511  0.000000000E+00  0.000000000E+00 -2.080231447E+02  2.080231447E+02  1.414229699E-06  0.00000E+00  9.000E+00
      23     2     1     2     0     0  3.330299039E+00 -2.694698289E+00 -1.256743021E+02  1.549948447E+02  9.061467542E+01  0.00000E+00  9.000E+00
      11     1     3     3     0     0  7.135358654E+00  1.827542253E+00 -1.396378961E+02  1.398320252E+02  5.110000000E-04  0.00000E+00  9.000E+00
     -11     1     3     3     0     0 -3.805059615E+00 -4.522240543E+00  1.396359400E+01  1.516281952E+01  5.110000000E-04  0.00000E+00  9.000E+00
      21     1     1     2   501   502 -3.080002454E+00  4.535405763E+00 -2.510773928E+01  2.569931696E+01  2.579194872E-08  0.00000E+00  9.000E+00
      21     1     1     2   502   511 -2.502965844E-01 -1.840707473E+00 -4.226464079E+01  4.230544544E+01  2.008953608E-07  0.00000E+00  9.000E+00
#rwgt            1          23   282.03435233659718         54217137      210975           0
</event>
<event>
      7  10001  1.41997E+02  1.85810E+00 -1.00000E+00  3.78657E-01
       2    -1     0     0   501     0  0.000000000E+00  0.000000000E+00  8.788747530E+00  8.788747530E+00  3.403573271E-08  0.00000E+00  9.000E+00
      -2    -1     0     0     0   511  0.000000000E+00  0.000000000E+00 -2.246324065E+02  2.246324065E+02  1.110975254E-06  0.00000E+00  9.000E+00
      23     2     1     2     0     0 -7.553995693E-01  5.406491545E+00 -1.123726994E+02  1.286037237E+02  6.230163238E+01  0.00000E+00  9.000E+00
      11     1     3     3     0     0  3.028967650E+00  3.200237583E+01 -8.188830480E+01  8.797170662E+01  5.110000000E-04  0.00000E+00  9.000E+00
     -11     1     3     3     0     0 -3.784367219E+00 -2.659588429E+01 -3.048439458E+01  4.063201705E+01  5.110000000E-04  0.00000E+00  9.000E+00
      21     1     1     2   501   502 -1.036757414E+00 -5.897098213E+00 -1.284010740E+01  1.416753300E+01  3.118791522E-07  0.00000E+00  9.000E+00
      21     1     1     2   502   511  1.792156983E+00  4.906066678E-01 -9.063085223E+01  9.064989739E+01  4.251083036E-07  0.00000E+00  9.000E+00
#rwgt            1          23   118.33884621127039         54217137      212191           0
</event>
<event>
      7  10001  1.41997E+02  1.67799E+01 -1.00000E+00  1.72912E-01
      -2    -1     0     0     0   502  0.000000000E+00  0.000000000E+00  8.872793904E+01  8.872793904E+01  6.543232653E-07  0.00000E+00  9.000E+00
      -2    -1     0     0     0   501  0.000000000E+00  0.000000000E+00 -1.067919783E+02  1.067919783E+02  2.575568771E-07  0.00000E+00  9.000E+00
      23     2     1     2     0     0 -7.359915242E-03 -5.179823890E+00  6.389762590E+01  1.084665638E+02  8.749433257E+01  0.00000E+00  9.000E+00
      11     1     3     3     0     0 -4.783212030E+00  1.383565954E+01 -1.860072757E+01  2.367048074E+01  5.110000000E-04  0.00000E+00  9.000E+00
     -11     1     3     3     0     0  4.775852115E+00 -1.901548343E+01  8.249835347E+01  8.479608304E+01  5.110000000E-04  0.00000E+00  9.000E+00
      -2     1     1     2     0   501 -4.418261250E+00 -1.100594344E+01 -2.497934024E+01  2.765174971E+01  0.000000000E+00  0.00000E+00  9.000E+00
      -2     1     1     2     0   502  4.425621166E+00  1.618576733E+01 -5.698232492E+01  5.940160385E+01  0.000000000E+00  0.00000E+00  9.000E+00
#rwgt            1           7   3.0488803129631821         54217137      213050           0
</event>
<event>
      7  10001  1.41997E+02  5.12945E+00 -1.00000E+00  2.36586E-01
       2    -1     0     0   501     0  0.000000000E+00  0.000000000E+00  2.177454462E+02  2.177454462E+02  5.449296566E-07  0.00000E+00  9.000E+00
      21    -1     0     0   511   501  0.000000000E+00  0.000000000E+00 -5.360672670E+01  5.360672670E+01  4.501212931E-07  0.00000E+00  9.000E+00
      23     2     1     2     0     0  3.462601634E+01  1.679672118E+00  1.963715643E+02  2.185665611E+02  8.948613339E+01  0.00000E+00  9.000E+00
      11     1     3     3     0     0 -1.041661201E+01 -2.768704359E+01  2.427927466E+01  3.826958801E+01  5.110000000E-04  0.00000E+00  9.000E+00
     -11     1     3     3     0     0  4.504262835E+01  2.936671570E+01  1.720922896E+02  1.802969731E+02  5.110000000E-04  0.00000E+00  9.000E+00
       2     1     1     2   502     0 -3.645078832E+01  3.114228450E+00 -2.708751721E+01  4.552023700E+01  0.000000000E+00  0.00000E+00  9.000E+00
      21     1     1     2   511   502  1.824771980E+00 -4.793900568E+00 -5.145327552E+00  7.265374805E+00  1.224005236E-07  0.00000E+00  9.000E+00
#rwgt            1          24   328.76223313310311         54217137      213406           0
</event>
<event>
      7  10001  1.41997E+02  3.42247E+01 -1.00000E+00  1.49167E-01
      21    -1     0     0   502   501  0.000000000E+00  0.000000000E+00  1.303278232E+02  1.303278232E+02  7.976285493E-07  0.00000E+00  9.000E+00
      -1    -1     0     0     0   502  0.000000000E+00  0.000000000E+00 -4.063666091E+01  4.063666091E+01  1.899911426E-07  0.00000E+00  9.000E+00
      23     2     1     2     0     0 -4.065221759E+00 -6.479787023E+00  1.610778397E+01  9.625378168E+01  9.458761079E+01  0.00000E+00  9.000E+00
      11     1     3     3     0     0  7.989522557E+00 -3.492637442E+01  4.252346881E+01  5.560512118E+01  5.110000000E-04  0.00000E+00  9.000E+00
     -11     1     3     3     0     0 -1.205474432E+01  2.844658740E+01 -2.641568484E+01  4.064866051E+01  5.110000000E-04  0.00000E+00  9.000E+00
      -1     1     1     2     0   511 -2.028338264E+00 -1.003327994E+00  5.508309393E+00  5.955022716E+00  0.000000000E+00  0.00000E+00  9.000E+00
      21     1     1     2   511   501  6.093560023E+00  7.483115017E+00  6.807506896E+01  6.875567975E+01  3.207117368E-06  0.00000E+00  9.000E+00
#rwgt            1          15   9.4649926972569975         54217137      214267           0
</event>
<event>
      7  10001  1.41997E+02  4.75341E+00 -1.00000E+00  2.46969E-01
       1    -1     0     0   512     0  0.000000000E+00  0.000000000E+00  2.492146557E+02  2.492146557E+02  1.512347212E-06  0.00000E+00  9.000E+00
      21    -1     0     0   502   501  0.000000000E+00  0.000000000E+00 -1.346627574E+01  1.346627574E+01  1.171110619E-07  0.00000E+00  9.000E+00
      23     2     1     2     0     0 -4.138704846E+00  7.851281071E+00  2.163257509E+02  2.349804149E+02  9.132465938E+01  0.00000E+00  9.000E+00
      11     1     3     3     0     0  3.293466831E+01 -7.560949506E+00  1.715239979E+02  1.748208860E+02  5.110000000E-04  0.00000E+00  9.000E+00
     -11     1     3     3     0     0 -3.707337315E+01  1.541223058E+01  4.480175303E+01  6.015952895E+01  5.110000000E-04  0.00000E+00  9.000E+00
       1     1     1     2   502     0  6.788389998E+00 -1.179768204E+01  9.205999862E+00  1.643222364E+01  0.000000000E+00  0.00000E+00  9.000E+00
      21     1     1     2   512   501 -2.649685152E+00  3.946400965E+00  1.021662916E+01  1.126829283E+01  1.936406240E-07  0.00000E+00  9.000E+00
#rwgt            1          22   4.8859691301662274         54217137      214734           0
</event>
<event>
      7  10001  1.41997E+02  5.75681E+00 -1.00000E+00  2.28293E-01
       2    -1     0     0   511     0  0.000000000E+00  0.000000000E+00  1.759441218E+02  1.759441218E+02  6.075260300E-07  0.00000E+00  9.000E+00
      -2    -1     0     0     0   502  0.000000000E+00  0.000000000E+00 -4.801503937E+01  4.801503937E+01  3.890946756E-07  0.00000E+00  9.000E+00
      23     2     1     2     0     0  9.333437841E+00 -5.409516146E+00  4.590025427E+01  1.017319990E+02  9.014538448E+01  0.00000E+00  9.000E+00
      11     1     3     3     0     0  2.241458560E+01 -1.952687521E+01 -1.816523523E+01  3.483802914E+01  5.110000000E-04  0.00000E+00  9.000E+00
     -11     1     3     3     0     0 -1.308114776E+01  1.411735906E+01  6.406548951E+01  6.689396983E+01  5.110000000E-04  0.00000E+00  9.000E+00
      21     1     1     2   501   502 -1.112521657E+01  1.088038291E+01 -1.699100456E+01  2.304012613E+01  4.674235141E-07  0.00000E+00  9.000E+00
      21     1     1     2   511   501  1.791778730E+00 -5.470866768E+00  9.901983267E+01  9.918703603E+01  9.045200768E-07  0.00000E+00  9.000E+00
#rwgt            1          23   475.32274613413398         54217137      215083           0
</event>
<event>
      7  10001  1.41997E+02  4.99208E+00 -1.00000E+00  2.42675E-01
      -2    -1     0     0     0   502  0.000000000E+00  0.000000000E+00  1.159109261E+02  1.159109261E+02  7.827940198E-07  0.00000E+00  9.000E+00
       2    -1     0     0   511     0  0.000000000E+00  0.000000000E+00 -5.822869636E+01  5.822869636E+01  4.147026814E-07  0.00000E+00  9.000E+00
      23     2     1     2     0     0 -6.540946023E+00  4.768353398E-01  3.291911260E+01  9.754157643E+01  9.158427710E+01  0.00000E+00  9.000E+00
      11     1     3     3     0     0 -5.004166338E+00 -2.388858857E+01 -2.484637061E+01  3.482884548E+01  5.110000000E-04  0.00000E+00  9.000E+00
     -11     1     3     3     0     0 -1.536779685E+00  2.436542391E+01  5.776548321E+01  6.271273096E+01  5.110000000E-04  0.00000E+00  9.000E+00
      21     1     1     2   501   502  1.144667568E+01 -1.401320358E+00  4.977469153E+01  5.109315023E+01  8.724291167E-07  0.00000E+00  9.000E+00
      21     1     1     2   511   501 -4.905729662E+00  9.244850179E-01 -2.501157439E+01  2.550489580E+01  5.710065584E-07  0.00000E+00  9.000E+00
#rwgt            1           8   58.418917810587750         54217137      215915           0
</event>
<event>
      7  10001  1.41997E+02  1.78582E+00 -1.00000E+00  3.87683E-01
      21    -1     0     0   502   501  0.000000000E+00  0.000000000E+00  5.613220821E+00  5.613220821E+00  4.013109319E-08  0.00000E+00  9.000E+00
      -2    -1     0     0     0   502  0.000000000E+00  0.000000000E+00 -7.156824753E+02  7.156824753E+02  2.666360504E-06  0.00000E+00  9.000E+00
      23     2     1     2     0     0 -6.445669220E+00 -4.290871441E+00 -7.059633524E+02  7.117569945E+02  9.029842749E+01  0.00000E+00  9.000E+00
      11     1     3     3     0     0  3.587511937E+01  1.992358062E+01 -3.712073939E+02  3.734687437E+02  5.110000000E-04  0.00000E+00  9.000E+00
     -11     1     3     3     0     0 -4.232078859E+01 -2.421445207E+01 -3.347559586E+02  3.382882508E+02  5.110000000E-04  0.00000E+00  9.000E+00
      -2     1     1     2     0   511  6.009347050E+00  4.739698332E+00 -4.420190445E+00  8.838273351E+00  0.000000000E+00  0.00000E+00  9.000E+00
      21     1     1     2   511   501  4.363221704E-01 -4.488268909E-01  3.142883771E-01  7.004282964E-01  1.929778781E-07  0.00000E+00  9.000E+00
#rwgt            1          14   619.42074973481192         54217137      216404           0
</event>
<event>
      7  10001  1.41997E+02  6.49399E+00 -1.00000E+00  2.20259E-01
       2    -1     0     0   512     0  0.000000000E+00  0.000000000E+00  3.697057645E+02  3.697057645E+02  2.105763475E-06  0.00000E+00  9.000E+00
      21    -1     0     0   502   501  0.000000000E+00  0.000000000E+00 -1.535452705E+01  1.535452705E+01  3.329216867E-08  0.00000E+00  9.000E+00
      23     2     1     2     0     0 -2.861621279E+01 -3.271717780E+00  3.092223773E+02  3.237600950E+02  9.150152324E+01  0.00000E+00  9.000E+00
      11     1     3     3     0     0 -7.999189610E+00  2.731109472E+01  2.634228288E+02  2.649555994E+02  5.110000000E-04  0.00000E+00  9.000E+00
     -11     1     3     3     0     0 -2.061702319E+01 -3.058281250E+01  4.579954854E+01  5.880449568E+01  5.110000000E-04  0.00000E+00  9.000E+00
       2     1     1     2   502     0  2.272287960E+01  5.999450761E+00  9.940075759E+00  2.551720543E+01  0.000000000E+00  0.00000E+00  9.000E+00
      21     1     1     2   512   501  5.893333197E+00 -2.727732982E+00  3.518878441E+01  3.578299110E+01  6.850537870E-07  0.00000E+00  9.000E+00
#rwgt            1          24   94.127848773150731         54217137      217495           0
</event>
<event>
      7  10001  1.41997E+02  2.68313E+00 -1.00000E+00  3.12387E-01
      21    -1     0     0   501   511  0.000000000E+00  0.000000000E+00  1.993041557E+02  1.993041557E+02  1.078500905E-06  0.00000E+00  9.000E+00
      -2    -1     0     0     0   502  0.000000000E+00  0.000000000E+00 -5.829465708E+01  5.829465708E+01  2.767064630E-07  0.00000E+00  9.000E+00
      23     2     1     2     0     0  1.569851903E+01  7.451579025E+00  2.924161891E+00  8.904775766E+01  8.728678533E+01  0.00000E+00  9.000E+00
      11     1     3     3     0     0  4.754829229E+00  1.454762720E+01 -4.071740184E+01  4.349883528E+01  5.110000000E-04  0.00000E+00  9.000E+00
     -11     1     3     3     0     0  1.094368980E+01 -7.096048178E+00  4.364156373E+01  4.554892239E+01  5.110000000E-04  0.00000E+00  9.000E+00
      21     1     1     2   501   502 -1.304387183E+01 -7.061676971E+00 -1.160720718E+01  1.883446661E+01  2.800476522E-07  0.00000E+00  9.000E+00
      -2     1     1     2     0   511 -2.654647198E+00 -3.899020535E-01  1.496925439E+02  1.497165885E+02  0.000000000E+00  0.00000E+00  9.000E+00
#rwgt            1          23   33.208833398357413         54217137      218051           0
</event>
<event>
      7  10001  1.41997E+02  8.15813E+00 -1.00000E+00  2.06560E-01
       1    -1     0     0   511     0  0.000000000E+00  0.000000000E+00  1.740666030E+01  1.740666030E+01  1.465938367E-07  0.00000E+00  9.000E+00
      -1    -1     0     0     0   502  0.000000000E+00  0.000000000E+00 -3.219171319E+02  3.219171319E+02  5.989753946E-07  0.00000E+00  9.000E+00
      23     2     1     2     0     0 -4.851317842E+00  7.989928054E-03 -1.252606406E+02  1.560513957E+02  9.294231911E+01  0.00000E+00  9.000E+00
      11     1     3     3     0     0  2.863778037E+01  1.254483046E+01 -6.380128083E+00  3.190926621E+01  5.110000000E-04  0.00000E+00  9.000E+00
     -11     1     3     3     0     0 -3.348909821E+01 -1.253684054E+01 -1.188805125E+02  1.241421295E+02  5.110000000E-04  0.00000E+00  9.000E+00
      21     1     1     2   501   502  4.373333303E+00  8.136124203E+00 -1.723225916E+02  1.725699804E+02  4.502249222E-06  0.00000E+00  9.000E+00
      21     1     1     2   511   501  4.779845388E-01 -8.144114131E+00 -6.927239483E+00  1.070241613E+01  1.528137443E-07  0.00000E+00  9.000E+00
#rwgt            1          21   14.131219441204930         54217137      219307           0
</event>
<event>
      7  10001  1.41997E+02  1.36707E+01 -1.00000E+00  1.81262E-01
       1    -1     0     0   501     0  0.000000000E+00  0.000000000E+00  2.658897790E+01  2.658897790E+01  2.243656192E-07  0.00000E+00  9.000E+00
      -1    -1     0     0     0   502  0.000000000E+00  0.000000000E+00 -1.317445426E+02  1.317445426E+02  7.079763529E-07  0.00000E+00  9.000E+00
      23     2     1     2     0     0 -7.850475628E+00  1.542455866E+01 -8.283184163E+01  1.242836587E+02  9.102618775E+01  0.00000E+00  9.000E+00
      11     1     3     3     0     0  2.539311853E+01  2.501179871E-01 -8.396687176E+01  8.772290796E+01  5.110000000E-04  0.00000E+00  9.000E+00
     -11     1     3     3     0     0 -3.324359416E+01  1.517444068E+01  1.135030124E+00  3.656075076E+01  5.110000000E-04  0.00000E+00  9.000E+00
      21     1     1     2   501   511  1.273679882E+01 -1.017379907E+01 -2.127310468E+01  2.680069429E+01  7.464059526E-07  0.00000E+00  9.000E+00
      21     1     1     2   511   502 -4.886323190E+00 -5.250759596E+00 -1.050618396E+00  7.249167515E+00  4.045165446E-07  0.00000E+00  9.000E+00
#rwgt            1          21   5.3231336908364391         54217137      219736           0
</event>
<event>
      7  10001  1.41997E+02  6.86462E+00 -1.00000E+00  2.16754E-01
       2    -1     0     0   501     0  0.000000000E+00  0.000000000E+00  7.161657858E+01  7.161657858E+01  2.765898916E-07  0.00000E+00  9.000E+00
      -2    -1     0     0     0   502  0.000000000E+00  0.000000000E+00 -4.742130671E+01  4.742130671E+01  2.896837409E-07  0.00000E+00  9.000E+00
      23     2     1     2     0     0  1.177787694E+01 -1.809309781E+01  1.763423668E+01  9.459067187E+01  9.038999020E+01  0.00000E+00  9.000E+00
      11     1     3     3     0     0 -6.567070532E+00  3.458614891E+01 -2.483878521E+00  3.529161040E+01  5.110000000E-04  0.00000E+00  9.000E+00
     -11     1     3     3     0     0  1.834494748E+01 -5.267924672E+01  2.011811520E+01  5.929906148E+01  5.110000000E-04  0.00000E+00  9.000E+00
      21     1     1     2   501   512 -1.122175300E+01  1.006304385E+01  6.455755662E+00  1.639723676E+01  1.090792876E-06  0.00000E+00  9.000E+00
      21     1     1     2   512   502 -5.561239422E-01  8.030053960E+00  1.052795285E-01  8.049976660E+00  5.799988748E-07  0.00000E+00  9.000E+00
#rwgt            1          23   172.63001789140321         54217137      219993           0
</event>
<event>
      7  10001  1.41997E+02  3.74322E+00 -1.00000E+00  2.70441E-01
       1    -1     0     0   501     0  0.000000000E+00  0.000000000E+00  1.103704190E+02  1.103704190E+02  9.322025774E-07  0.00000E+00  9.000E+00
      -1    -1     0     0     0   511  0.000000000E+00  0.000000000E+00 -4.290717271E+01  4.290717271E+01  3.357887557E-07  0.00000E+00  9.000E+00
      23     2     1     2     0     0 -5.404919256E+00 -1.145053133E+00  7.968459500E+01  1.193631655E+02  8.869840078E+01  0.00000E+00  9.000E+00
      11     1     3     3     0     0 -2.736778626E+01  3.621310602E+01  3.737957473E+01  5.880150831E+01  5.110000000E-04  0.00000E+00  9.000E+00
     -11     1     3     3     0     0  2.196286700E+01 -3.735815916E+01  4.230502028E+01  6.056165721E+01  5.110000000E-04  0.00000E+00  9.000E+00
      21     1     1     2   501   502  8.106645636E+00  3.735873915E+00  8.816524287E+00  1.254613717E+01  6.422112201E-07  0.00000E+00  9.000E+00
      21     1     1     2   502   511 -2.701726379E+00 -2.590820782E+00 -2.103787298E+01  2.136828905E+01  3.111337731E-07  0.00000E+00  9.000E+00
#rwgt            1          21   74.578660385683634         54217137      220587           0
</event>
<event>
      7  10001  1.41997E+02  4.64526E+00 -1.00000E+00  2.49042E-01
       2    -1     0     0   501     0  0.000000000E+00  0.000000000E+00  2.999297687E+01  2.999297687E+01  1.995512420E-07  0.00000E+00  9.000E+00
      -2    -1     0     0     0   502  0.000000000E+00  0.000000000E+00 -9.210926768E+01  9.210926768E+01  1.359062919E-07  0.00000E+00  9.000E+00
      23     2     1     2     0     0 -1.153497793E+01 -4.718149454E+00 -5.007114196E+01  1.035318762E+02  8.975752601E+01  0.00000E+00  9.000E+00
      11     1     3     3     0     0  1.410032027E+00  7.364839984E+00 -7.365738864E+01  7.403809803E+01  5.110000000E-04  0.00000E+00  9.000E+00
     -11     1     3     3     0     0 -1.294500995E+01 -1.208298944E+01  2.358624668E+01  2.949377814E+01  5.110000000E-04  0.00000E+00  9.000E+00
      21     1     1     2   501   511  9.251662689E+00  2.928323726E+00 -4.925932054E+00  1.088269952E+01  1.065634161E-06  0.00000E+00  9.000E+00
      21     1     1     2   511   502  2.283315239E+00  1.789825728E+00 -7.119216800E+00  7.687668857E+00  4.320313879E-07  0.00000E+00  9.000E+00
#rwgt            1          23   41.046264390704479         54217137      221073           0
</event>
<event>
      7  10001  1.41997E+02  8.33066E+00 -1.00000E+00  2.05392E-01
       2    -1     0     0   501     0  0.000000000E+00  0.000000000E+00  7.227520918E+01  7.227520918E+01  5.185498912E-07  0.00000E+00  9.000E+00
      -2    -1     0     0     0   502  0.000000000E+00  0.000000000E+00 -7.037233861E+01  7.037233861E+01  3.043644349E-07  0.00000E+00  9.000E+00
      23     2     1     2     0     0  4.155879860E+00  8.984249643E+00 -3.325409732E+01  9.859134576E+01  9.228450786E+01  0.00000E+00  9.000E+00
      11     1     3     3     0     0  4.116999119E+01 -4.168345901E+00  7.425784257E+00  4.204147421E+01  5.110000000E-04  0.00000E+00  9.000E+00
     -11     1     3     3     0     0 -3.701411133E+01  1.315259554E+01 -4.067988158E+01  5.654987155E+01  5.110000000E-04  0.00000E+00  9.000E+00
      21     1     1     2   512   502 -6.062649775E+00 -6.880020627E+00  3.855347166E+01  3.962903712E+01  6.862820071E-07  0.00000E+00  9.000E+00
      21     1     1     2   501   512  1.906769914E+00 -2.104229016E+00 -3.396503777E+00  4.427164913E+00  5.157028608E-08  0.00000E+00  9.000E+00
#rwgt            1          23   114.55485711435965         54217137      221665           0
</event>
<event>
      7  10001  1.41997E+02  4.32860E+00 -1.00000E+00  2.55637E-01
       1    -1     0     0   501     0  0.000000000E+00  0.000000000E+00  2.843228818E+01  2.843228818E+01  1.852152358E-07  0.00000E+00  9.000E+00
      -1    -1     0     0     0   511  0.000000000E+00  0.000000000E+00 -1.530324579E+02  1.530324579E+02  4.546175210E-07  0.00000E+00  9.000E+00
      23     2     1     2     0     0  5.467152960E+00  4.510110555E+00 -5.914725499E+01  1.107313019E+02  9.334234084E+01  0.00000E+00  9.000E+00
      11     1     3     3     0     0 -1.458672982E+00  4.138096193E+01 -8.614365742E-01  4.141562278E+01  5.110000000E-04  0.00000E+00  9.000E+00
     -11     1     3     3     0     0  6.925825943E+00 -3.687085138E+01 -5.828581842E+01  6.931567914E+01  5.110000000E-04  0.00000E+00  9.000E+00
      21     1     1     2   501   502 -2.173953654E+00 -7.319305314E+00 -3.116415815E+00  8.246838928E+00  2.648242187E-07  0.00000E+00  9.000E+00
      21     1     1     2   502   511 -3.293199306E+00  2.809194759E+00 -6.233649894E+01  6.248660526E+01  9.152231581E-07  0.00000E+00  9.000E+00
#rwgt            1          21   69.613834520043554         54217137      222253           0
</event>
<event>
      7  10001  1.41997E+02  1.67578E+00 -1.00000E+00  4.03164E-01
       1    -1     0     0   501     0  0.000000000E+00  0.000000000E+00  8.308349769E+00  8.308349769E+00  5.379194956E-08  0.00000E+00  9.000E+00
      -1    -1     0     0     0   502  0.000000000E+00  0.000000000E+00 -2.654539360E+02  2.654539360E+02  1.222112297E-06  0.00000E+00  9.000E+00
      23     2     1     2     0     0  2.369262373E+00  3.814514574E+00 -2.320887204E+02  2.481372005E+02  8.767401105E+01  0.00000E+00  9.000E+00
      11     1     3     3     0     0 -8.095540120E+00  2.141507162E+01 -9.793569786E+00  2.490094520E+01  5.110000000E-04  0.00000E+00  9.000E+00
     -11     1     3     3     0     0  1.046480249E+01 -1.760055704E+01 -2.222951507E+02  2.232362554E+02  5.110000000E-04  0.00000E+00  9.000E+00
      21     1     1     2   501   511 -9.993898577E-01 -3.254804403E+00 -2.157202826E+01  2.183906900E+01  1.931108260E-07  0.00000E+00  9.000E+00
      21     1     1     2   511   502 -1.369872515E+00 -5.597101708E-01 -3.484837563E+00  3.786016247E+00  4.648418597E-08  0.00000E+00  9.000E+00
#rwgt            1          21   6.2368958620524344         54217137      222672           0
</event>
<event>
      7  10001 -1.41997E+02  7.25835E+00 -1.00000E+00  2.13347E-01
      -2    -1     0     0     0   502  0.000000000E+00  0.000000000E+00  1.188989044E+02  1.188989044E+02  8.662453700E-07  0.00000E+00  9.000E+00
       2    -1     0     0   501     0  0.000000000E+00  0.000000000E+00 -2.626314676E+01  2.626314676E+01  1.831657358E-07  0.00000E+00  9.000E+00
      23     2     1     2     0     0 -9.243315358E-01 -4.848650788E+00  9.872394488E+01  1.355794271E+02  9.279547376E+01  0.00000E+00  9.000E+00
      11     1     3     3     0     0  1.858151619E+01  3.995298105E+01  4.698868313E+01  6.441622296E+01  5.110000000E-04  0.00000E+00  9.000E+00
     -11     1     3     3     0     0 -1.950584772E+01 -4.480163184E+01  5.173526176E+01  7.116320412E+01  5.110000000E-04  0.00000E+00  9.000E+00
      21     1     1     2   501   512  2.121151165E+00  3.525756183E+00 -1.062347066E+00  4.249567062E+00  6.669041452E-08  0.00000E+00  9.000E+00
      21     1     1     2   512   502 -1.196819629E+00  1.322894605E+00 -5.025840196E+00  5.333057007E+00  5.270513040E-08  0.00000E+00  9.000E+00
#rwgt            1           8 -0.66385069349206016         54217137      223807           0
</event>
<event>
      7  10001  1.41997E+02  3.30290E+01 -1.00000E+00  1.50191E-01
       2    -1     0     0   501     0  0.000000000E+00  0.000000000E+00  3.448435660E+01  3.448435660E+01  2.569636501E-07  0.00000E+00  9.000E+00
      -2    -1     0     0     0   502  0.000000000E+00  0.000000000E+00 -1.048618893E+02  1.048618893E+02  8.348506570E-07  0.00000E+00  9.000E+00
      23     2     1     2     0     0  9.752989287E+00 -7.925058617E-01 -3.476643022E+01  9.371134030E+01  8.647173970E+01  0.00000E+00  9.000E+00
      11     1     3     3     0     0  3.582502751E+01 -3.081755869E+01 -1.853578966E+01  5.076150134E+01  5.110000000E-04  0.00000E+00  9.000E+00
     -11     1     3     3     0     0 -2.607203823E+01  3.002505282E+01 -1.623064056E+01  4.294983897E+01  5.110000000E-04  0.00000E+00  9.000E+00
      21     1     1     2   511   502  8.725674372E+00  1.925380720E+00 -1.793775314E+01  2.004014651E+01  5.194520083E-07  0.00000E+00  9.000E+00
      21     1     1     2   501   511 -1.847866366E+01 -1.132874859E+00 -1.767334937E+01  2.559475911E+01  4.264647824E-07  0.00000E+00  9.000E+00
#rwgt            1          23   29.636816150005586         54217137      224096           0
</event>
<event>
      7  10001  1.41997E+02  3.61173E+00 -1.00000E+00  2.74368E-01
       2    -1     0     0   501     0  0.000000000E+00  0.000000000E+00  2.549543721E+02  2.549543721E+02  8.505708152E-07  0.00000E+00  9.000E+00
      21    -1     0     0   502   501  0.000000000E+00  0.000000000E+00 -1.967187670E+01  1.967187670E+01  8.435976676E-08  0.00000E+00  9.000E+00
      23     2     1     2     0     0 -3.162612145E+01  2.179220639E+01  1.834250179E+02  2.098971656E+02  9.453555475E+01  0.00000E+00  9.000E+00
      11     1     3     3     0     0 -3.894574490E+01  1.978690478E+01  2.314329403E+01  4.943586456E+01  5.110000000E-04  0.00000E+00  9.000E+00
     -11     1     3     3     0     0  7.319623440E+00  2.005301610E+00  1.602817238E+02  1.604613010E+02  5.110000000E-04  0.00000E+00  9.000E+00
       2     1     1     2   512     0  2.157310492E+01 -1.442746759E+01  3.879522487E+01  4.667569120E+01  0.000000000E+00  0.00000E+00  9.000E+00
      21     1     1     2   502   512  1.005301654E+01 -7.364738801E+00  1.306225266E+01  1.805339202E+01  6.750685332E-07  0.00000E+00  9.000E+00
#rwgt            1          24   45.376713506591678         54217137      224301           0
</event>
<event>
      7  10001  1.41997E+02  8.41851E+00 -1.00000E+00  2.04812E-01
       2    -1     0     0   501     0  0.000000000E+00  0.000000000E+00  4.989080813E+01  4.989080813E+01  3.995310305E-07  0.00000E+00  9.000E+00
      -2    -1     0     0     0   502  0.000000000E+00  0.000000000E+00 -9.615166319E+01  9.615166319E+01  9.251535314E-07  0.00000E+00  9.000E+00
      23     2     1     2     0     0  2.086989379E+01  4.857656913E-01 -6.716397922E+01  1.152616603E+02  9.131517838E+01  0.00000E+00  9.000E+00
      11     1     3     3     0     0  3.212975549E+01  7.544255946E+00  1.190390160E+01  3.508475252E+01  5.110000000E-04  0.00000E+00  9.000E+00
     -11     1     3     3     0     0 -1.125986170E+01 -7.058490254E+00 -7.906788082E+01  8.017690782E+01  5.110000000E-04  0.00000E+00  9.000E+00
      21     1     1     2   501   511 -7.102119066E+00 -5.433779510E-01  1.321348152E+01  1.501104423E+01  1.051568925E-06  0.00000E+00  9.000E+00
      21     1     1     2   511   502 -1.376777473E+01  5.761225969E-02  7.689642640E+00  1.576976677E+01  9.894634963E-07  0.00000E+00  9.000E+00
#rwgt            1          23   21.373233365316342         54217137      224926           0
</event>
<event>
      7  10001  1.41997E+02  8.77283E+00 -1.00000E+00  2.02563E-01
       1    -1     0     0   501     0  0.000000000E+00  0.000000000E+00  5.117805727E+01  5.117805727E+01  3.174167744E-07  0.00000E+00  9.000E+00
      -1    -1     0     0     0   502  0.000000000E+00  0.000000000E+00 -5.526317181E+01  5.526317181E+01  1.289592578E-07  0.00000E+00  9.000E+00
      23     2     1     2     0     0 -1.662683645E+00  3.831578272E+00 -3.808042471E-01  9.759166906E+01  9.750150434E+01  0.00000E+00  9.000E+00
      11     1     3     3     0     0 -4.507659682E+01 -1.824597422E+01 -3.725528763E+00  4.877186403E+01  5.110000000E-04  0.00000E+00  9.000E+00
     -11     1     3     3     0     0  4.341391318E+01  2.207755249E+01  3.344724516E+00  4.881980503E+01  5.110000000E-04  0.00000E+00  9.000E+00
      21     1     1     2   501   512  1.739498728E+00 -2.183764450E+00  1.652646560E+00  3.244367990E+00  1.937212410E-07  0.00000E+00  9.000E+00
      21     1     1     2   512   502 -7.681508308E-02 -1.647813822E+00 -5.356956852E+00  5.605192027E+00  5.087456195E-07  0.00000E+00  9.000E+00
#rwgt            1          21   103.61883110668973         54217137      225552           0
</event>
<event>
      7  10001  1.41997E+02  1.25443E+00 -1.00000E+00  5.15935E-01
       1    -1     0     0   511     0  0.000000000E+00  0.000000000E+00  1.617177606E+01  1.617177606E+01  8.794095992E-08  0.00000E+00  9.000E+00
      -1    -1     0     0     0   502  0.000000000E+00  0.000000000E+00 -2.007875220E+02  2.007875220E+02  1.697982925E-06  0.00000E+00  9.000E+00
      23     2     1     2     0     0 -6.504844785E+00 -8.224481064E-01 -1.836137892E+02  2.051476574E+02  9.126088059E+01  0.00000E+00  9.000E+00
      11     1     3     3     0     0  7.826231886E+00 -6.530446192E+00  7.973002459E+00  1.294084238E+01  5.110000000E-04  0.00000E+00  9.000E+00
     -11     1     3     3     0     0 -1.433107667E+01  5.707998086E+00 -1.915867917E+02  1.922068151E+02  5.110000000E-04  0.00000E+00  9.000E+00
      21     1     1     2   501   502  5.517744224E+00  4.835628099E-02 -5.107374889E+00  7.518850837E+00  2.321224530E-08  0.00000E+00  9.000E+00
      21     1     1     2   511   501  9.871005609E-01  7.740918254E-01  4.105418189E+00  4.292789790E+00  1.075156415E-07  0.00000E+00  9.000E+00
#rwgt            1          21   19.059348934951306         54217137      225775           0
</event>
<event>
      7  10001  1.41997E+02  2.24879E+00 -1.00000E+00  3.40855E-01
       1    -1     0     0   511     0  0.000000000E+00  0.000000000E+00  7.936770567E+01  7.936770567E+01  2.332079050E-07  0.00000E+00  9.000E+00
      -1    -1     0     0     0   502  0.000000000E+00  0.000000000E+00 -2.860775649E+01  2.860775649E+01  1.989166837E-07  0.00000E+00  9.000E+00
      23     2     1     2     0     0 -2.428870477E+00  3.716217118E+00  4.633893455E+01  9.813440372E+01  8.639070932E+01  0.00000E+00  9.000E+00
      11     1     3     3     0     0  2.642301496E+01  2.925850723E+01  4.464983835E+01  5.956378119E+01  5.110000000E-04  0.00000E+00  9.000E+00
     -11     1     3     3     0     0 -2.885188543E+01 -2.554229011E+01  1.689096204E+00  3.857062254E+01  5.110000000E-04  0.00000E+00  9.000E+00
      21     1     1     2   501   502  1.676623463E+00 -5.835460168E+00  1.688074614E+00  6.301845564E+00  3.991087415E-07  0.00000E+00  9.000E+00
      21     1     1     2   511   501  7.522470139E-01  2.119243050E+00  2.732940016E+00  3.539212879E+00  6.456070835E-08  0.00000E+00  9.000E+00
#rwgt            1          21   12.193928743434720         54217137      227687           0
</event>
<event>
      7  10001  1.41997E+02  3.81380E+00 -1.00000E+00  2.68437E-01
       2    -1     0     0   501     0  0.000000000E+00  0.000000000E+00  3.187839482E+01  3.187839482E+01  1.077730299E-07  0.00000E+00  9.000E+00
      -2    -1     0     0     0   502  0.000000000E+00  0.000000000E+00 -3.333001696E+01  3.333001696E+01  2.540768239E-07  0.00000E+00  9.000E+00
      23     2     1     2     0     0 -2.613463428E+00  1.395728771E+00 -3.322243011E+00  5.867079992E+01  5.850168557E+01  0.00000E+00  9.000E+00
      11     1     3     3     0     0 -1.363609360E+01 -2.331884454E+01  9.618641526E+00  2.867455011E+01  5.110000000E-04  0.00000E+00  9.000E+00
     -11     1     3     3     0     0  1.102263017E+01  2.471457331E+01 -1.294088454E+01  2.999624981E+01  5.110000000E-04  0.00000E+00  9.000E+00
      21     1     1     2   511   502  1.461915814E+00 -2.012468183E+00  3.596642068E+00  4.372992134E+00  3.025109476E-07  0.00000E+00  9.000E+00
      21     1     1     2   501   511  1.151547614E+00  6.167394120E-01 -1.726021191E+00  2.164619727E+00  9.894774480E-08  0.00000E+00  9.000E+00
#rwgt            1          23  0.47941892164261735         54217137      228473           0
</event>
<event>
      7  10001  1.41997E+02  3.96892E+00 -1.00000E+00  2.64263E-01
      21    -1     0     0   502   501  0.000000000E+00  0.000000000E+00  6.792855649E+00  6.792855649E+00  2.459395972E-08  0.00000E+00  9.000E+00
      21    -1     0     0   512   502  0.000000000E+00  0.000000000E+00 -3.914911745E+02  3.914911745E+02  3.340909102E-06  0.00000E+00  9.000E+00
      23     2     1     2     0     0  1.140239398E+01  5.758670845E-01 -3.331697910E+02  3.449703640E+02  8.872483409E+01  0.00000E+00  9.000E+00
      11     1     3     3     0     0 -2.061743435E+01  9.882205086E+00 -2.875807604E+02  2.884881806E+02  5.110000000E-04  0.00000E+00  9.000E+00
     -11     1     3     3     0     0  3.201982833E+01 -9.306338002E+00 -4.558903065E+01  5.648218347E+01  5.110000000E-04  0.00000E+00  9.000E+00
      -1     1     1     2     0   501 -8.804965128E+00 -3.576809996E+00 -3.179553075E+01  3.318549015E+01  0.000000000E+00  0.00000E+00  9.000E+00
       1     1     1     2   512     0 -2.597428856E+00  3.000942911E+00 -1.973299702E+01  2.012817593E+01  0.000000000E+00  0.00000E+00  9.000E+00
#rwgt            1          15   1.0507179968020133         54217137      228873           0
</event>
<event>
      7  10001  1.41997E+02  4.16354E+01 -1.00000E+00  1.43767E-01
      -3    -1     0     0     0   502  0.000000000E+00  0.000000000E+00  3.220037228E+02  3.220037228E+02  1.620860049E-06  0.00000E+00  9.000E+00
      21    -1     0     0   502   501  0.000000000E+00  0.000000000E+00 -1.384345089E+01  1.384345089E+01  8.230520936E-08  0.00000E+00  9.000E+00
      23     2     1     2     0     0 -1.653675255E+00 -2.593002336E+01  2.106647231E+02  2.324473944E+02  9.474737377E+01  0.00000E+00  9.000E+00
      11     1     3     3     0     0  4.218664111E+01 -2.444701995E+01  7.157478052E+01  8.660438026E+01  5.110000000E-04  0.00000E+00  9.000E+00
     -11     1     3     3     0     0 -4.384031637E+01 -1.483003406E+00  1.390899426E+02  1.458430141E+02  5.110000000E-04  0.00000E+00  9.000E+00
      -3     1     1     2     0   511  3.394422981E+00  2.452792559E+00  1.329079918E+00  4.393717349E+00  0.000000000E+00  0.00000E+00  9.000E+00
      21     1     1     2   511   501 -1.740747726E+00  2.347723080E+01  9.616646884E+01  9.900606193E+01  7.640920587E-07  0.00000E+00  9.000E+00
#rwgt            1           5  0.41252811384121241         54217137      229568           0
</event>
<event>
      7  10001  1.41997E+02  7.83165E+00 -1.00000E+00  2.08880E-01
       1    -1     0     0   501     0  0.000000000E+00  0.000000000E+00  7.484363444E+01  7.484363444E+01  3.802367504E-07  0.00000E+00  9.000E+00
      -1    -1     0     0     0   502  0.000000000E+00  0.000000000E+00 -3.369093905E+01  3.369093905E+01  2.911115766E-07  0.00000E+00  9.000E+00
      23     2     1     2     0     0  6.552656701E+00 -1.185557517E+00  3.671699366E+01  9.976937094E+01  9.252808708E+01  0.00000E+00  9.000E+00
      11     1     3     3     0     0  8.069045395E+00 -4.659812636E+01  1.729924403E+01  5.035631756E+01  5.110000000E-04  0.00000E+00  9.000E+00
     -11     1     3     3     0     0 -1.516388694E+00  4.541256885E+01  1.941774964E+01  4.941305339E+01  5.110000000E-04  0.00000E+00  9.000E+00
       2     1     1     2   501     0 -2.827911909E-01  2.998456709E-01  1.900086859E+00  1.944275792E+00  0.000000000E+00  0.00000E+00  9.000E+00
      -2     1     1     2     0   502 -6.269865510E+00  8.857118463E-01  2.535614865E+00  6.820926750E+00  0.000000000E+00  0.00000E+00  9.000E+00
#rwgt            1          21   96.283874404462878         54217137      229632           0
</event>
<event>
      7  10001  1.41997E+02  7.37554E+00 -1.00000E+00  2.12390E-01
       2    -1     0     0   501     0  0.000000000E+00  0.000000000E+00  3.267843565E+01  3.267843565E+01  2.973409213E-07  0.00000E+00  9.000E+00
      -2    -1     0     0     0   502  0.000000000E+00  0.000000000E+00 -1.765906469E+02  1.765906469E+02  9.987486068E-07  0.00000E+00  9.000E+00
      23     2     1     2     0     0  5.574260210E+00  1.442626648E+01 -4.531788119E+01  1.090041816E+02  9.792349932E+01  0.00000E+00  9.000E+00
      11     1     3     3     0     0  1.593022478E+01 -4.015229309E+01 -1.506666317E+01  4.574913158E+01  5.110000000E-04  0.00000E+00  9.000E+00
     -11     1     3     3     0     0 -1.035596457E+01  5.457855957E+01 -3.025121802E+01  6.325505006E+01  5.110000000E-04  0.00000E+00  9.000E+00
      21     1     1     2   501   511 -1.098400736E+00 -5.593411746E+00 -6.478579166E+01  6.503607876E+01  1.735447065E-06  0.00000E+00  9.000E+00
      21     1     1     2   511   502 -4.475859474E+00 -8.832854734E+00 -3.380853843E+01  3.522882217E+01  8.246506777E-07  0.00000E+00  9.000E+00
#rwgt            1          23   354.67383175292639         54217137      229821           0
</event>
<event>
      7  10001  1.41997E+02  1.10476E+01 -1.00000E+00  1.90881E-01
      21    -1     0     0   512   501  0.000000000E+00  0.000000000E+00  4.457499665E+01  4.457499665E+01  1.382095061E-07  0.00000E+00  9.000E+00
      -2    -1     0     0     0   502  0.000000000E+00  0.000000000E+00 -9.640523042E+01  9.640523042E+01  5.989778628E-07  0.00000E+00  9.000E+00
      23     2     1     2     0     0 -4.131585444E+00 -2.460707559E+00 -7.314433848E+01  9.126705285E+01  5.437329863E+01  0.00000E+00  9.000E+00
      11     1     3     3     0     0  1.598679697E+00  2.215899016E+01 -1.233061717E+01  2.540906810E+01  5.110000000E-04  0.00000E+00  9.000E+00
     -11     1     3     3     0     0 -5.730265140E+00 -2.461969772E+01 -6.081372131E+01  6.585798475E+01  5.110000000E-04  0.00000E+00  9.000E+00
      -2     1     1     2     0   501  1.337568078E+01 -3.588763953E+00 -9.622222824E+00  1.686342893E+01  0.000000000E+00  0.00000E+00  9.000E+00
      21     1     1     2   512   502 -9.244095340E+00  6.049471512E+00  3.093632754E+01  3.284974529E+01  1.092070071E-07  0.00000E+00  9.000E+00
#rwgt            1          14   2.7786837686408008         54217137      230630           0
</event>
<event>
      7  10001  1.41997E+02  1.83441E+01 -1.00000E+00  1.69523E-01
      21    -1     0     0   511   502  0.000000000E+00  0.000000000E+00  4.571690962E+02  4.571690962E+02  3.752374067E-06  0.00000E+00  9.000E+00
       3    -1     0     0   501     0  0.000000000E+00  0.000000000E+00 -1.909799792E+01  1.909799792E+01  9.826797775E-08  0.00000E+00  9.000E+00
      23     2     1     2     0     0  2.915430832E+01  2.980299431E+00  1.118603058E+02  1.473535963E+02  9.133180409E+01  0.00000E+00  9.000E+00
      11     1     3     3     0     0  3.164113394E+01 -1.107010657E+01  1.241041507E+02  1.285517360E+02  5.110000000E-04  0.00000E+00  9.000E+00
     -11     1     3     3     0     0 -2.486825618E+00  1.405040601E+01 -1.224384488E+01  1.880186024E+01  5.110000000E-04  0.00000E+00  9.000E+00
      21     1     1     2   501   502 -1.528095561E+01 -1.498185728E+01  2.281659050E+02  2.291672836E+02  2.433200430E-06  0.00000E+00  9.000E+00
       3     1     1     2   511     0 -1.387335271E+01  1.200155785E+01  9.804488746E+01  9.974621428E+01  0.000000000E+00  0.00000E+00  9.000E+00
#rwgt            1           6  0.29034189494484236         54217137      230686           0
</event>
<event>
      7  10001  1.41997E+02  1.27275E+01 -1.00000E+00  1.84376E-01
       3    -1     0     0   501     0  0.000000000E+00  0.000000000E+00  3.614733878E+01  3.614733878E+01  2.614392535E-07  0.00000E+00  9.000E+00
      21    -1     0     0   502   501  0.000000000E+00  0.000000000E+00 -8.858218738E+01  8.858218738E+01  5.131883117E-07  0.00000E+00  9.000E+00
      23     2     1     2     0     0 -4.040785750E+00 -3.151362120E+00 -5.345623794E+01  1.066637512E+02  9.215925034E+01  0.00000E+00  9.000E+00
      11     1     3     3     0     0 -2.327639361E+00  2.489925945E+01 -6.980639204E+01  7.415068034E+01  5.110000000E-04  0.00000E+00  9.000E+00
     -11     1     3     3     0     0 -1.713146390E+00 -2.805062157E+01  1.635015409E+01  3.251307091E+01  5.110000000E-04  0.00000E+00  9.000E+00
       3     1     1     2   511     0 -2.705202097E-02 -1.482453251E+00  8.354387673E+00  8.484939178E+00  0.000000000E+00  0.00000E+00  9.000E+00
      21     1     1     2   502   511  4.067837771E+00  4.633815372E+00 -7.332998328E+00  9.580835742E+00  4.900414735E-08  0.00000E+00  9.000E+00
#rwgt            1          26  0.26597249767706194         54217137      230915           0
</event>
<event>
      7  10001  1.41997E+02  3.03222E+00 -1.00000E+00  2.95457E-01
       1    -1     0     0   501     0  0.000000000E+00  0.000000000E+00  1.482758579E+01  1.482758579E+01  3.978734472E-08  0.00000E+00  9.000E+00
      -1    -1     0     0     0   502  0.000000000E+00  0.000000000E+00 -2.173790560E+02  2.173790560E+02  1.457802517E-06  0.00000E+00  9.000E+00
      23     2     1     2     0     0 -1.648046609E+01  1.889566351E+00 -1.711988115E+02  1.959845229E+02  9.394532405E+01  0.00000E+00  9.000E+00
      11     1     3     3     0     0  3.364262707E+01 -1.724467824E+00 -2.666331144E+01  4.296198695E+01  5.110000000E-04  0.00000E+00  9.000E+00
     -11     1     3     3     0     0 -5.012309317E+01  3.614034175E+00 -1.445355001E+02  1.530225359E+02  5.110000000E-04  0.00000E+00  9.000E+00
      21     1     1     2   512   502  1.503018236E+01 -3.717996306E+00 -2.918102137E+01  3.303425323E+01  4.056973118E-07  0.00000E+00  9.000E+00
      21     1     1     2   501   512  1.450283731E+00  1.828429955E+00 -2.171637297E+00  3.187865673E+00  3.066280948E-08  0.00000E+00  9.000E+00
#rwgt            1          21   28.476873146772576         54217137      231066           0
</event>
<event>
      7  10001  1.41997E+02  9.60416E+00 -1.00000E+00  1.97802E-01
       1    -1     0     0   501     0  0.000000000E+00  0.000000000E+00  7.311613685E+01  7.311613685E+01  5.106385631E-07  0.00000E+00  9.000E+00
      -1    -1     0     0     0   511  0.000000000E+00  0.000000000E+00 -7.296396851E+01  7.296396851E+01  6.267225666E-07  0.00000E+00  9.000E+00
      23     2     1     2     0     0 -2.907147237E+01 -8.376752699E+00  2.661149587E+00  1.039886631E+02  9.945471258E+01  0.00000E+00  9.000E+00
      11     1     3     3     0     0  8.108953361E-01  1.353911259E+01 -4.305419177E+01  4.514009914E+01  5.110000000E-04  0.00000E+00  9.000E+00
     -11     1     3     3     0     0 -2.988236770E+01 -2.191586529E+01  4.571534136E+01  5.884856401E+01  5.110000000E-04  0.00000E+00  9.000E+00
      21     1     1     2   501   502  1.959832452E+01  6.795818715E+00  1.253995897E+01  2.423897784E+01  8.583452374E-07  0.00000E+00  9.000E+00
      21     1     1     2   502   511  9.473147849E+00  1.580933984E+00 -1.504894022E+01  1.785246437E+01  3.151967650E-07  0.00000E+00  9.000E+00
#rwgt            1          21   54.127162951342065         54217137      232076           0
</event>
<event>
      7  10001  1.41997E+02  3.07631E+00 -1.00000E+00  2.93587E-01
       1    -1     0     0   511     0  0.000000000E+00  0.000000000E+00  3.831322939E+01  3.831322939E+01  1.823748708E-07  0.00000E+00  9.000E+00
      -1    -1     0     0     0   502  0.000000000E+00  0.000000000E+00 -7.659695214E+01  7.659695214E+01  3.020592535E-07  0.00000E+00  9.000E+00
      23     2     1     2     0     0 -2.021033818E+00 -9.230949034E+00 -4.364095751E+01  1.019992777E+02  9.170618558E+01  0.00000E+00  9.000E+00
      11     1     3     3     0     0  1.849323713E+01  3.277685202E+01  5.946275014E-01  3.763874905E+01  5.110000000E-04  0.00000E+00  9.000E+00
     -11     1     3     3     0     0 -2.051427095E+01 -4.200780105E+01 -4.423558502E+01  6.436052862E+01  5.110000000E-04  0.00000E+00  9.000E+00
      21     1     1     2   501   502 -8.679796240E-01  8.173936428E+00  2.214155350E+00  8.512879024E+00  5.531974956E-07  0.00000E+00  9.000E+00
      21     1     1     2   511   501  2.889013442E+00  1.057012606E+00  3.143079414E+00  4.398024843E+00  1.198274870E-08  0.00000E+00  9.000E+00
#rwgt            1          21   2.6158895727591913         54217137      232354           0
</event>
<event>
      7  10001  1.41997E+02  1.00800E+01 -1.00000E+00  1.95354E-01
       2    -1     0     0   501     0  0.000000000E+00  0.000000000E+00  8.975533685E+01  8.975533685E+01  3.208891453E-07  0.00000E+00  9.000E+00
      -2    -1     0     0     0   502  0.000000000E+00  0.000000000E+00 -2.856938017E+01  2.856938017E+01  2.275808700E-07  0.00000E+00  9.000E+00
      23     2     1     2     0     0  6.355418070E+00  1.487020918E+00  5.792233241E+01  1.077082127E+02  9.057295354E+01  0.00000E+00  9.000E+00
      11     1     3     3     0     0 -2.515919271E+01  1.861655488E+01 -8.313919087E+00  3.238336524E+01  5.110000000E-04  0.00000E+00  9.000E+00
     -11     1     3     3     0     0  3.151461078E+01 -1.712953396E+01  6.623625150E+01  7.532484743E+01  5.110000000E-04  0.00000E+00  9.000E+00
      21     1     1     2   511   502 -1.430532627E+00 -3.303144807E+00  3.925291042E+00  5.325889502E+00  1.265616099E-07  0.00000E+00  9.000E+00
      21     1     1     2   501   511 -4.924885443E+00  1.816123889E+00 -6.616667728E-01  5.290614853E+00  2.850415050E-07  0.00000E+00  9.000E+00
#rwgt            1          23   491.55080263051963         54217137      233018           0
</event>
<event>
      7  10001  1.41997E+02  4.58815E+00 -1.00000E+00  2.50171E-01
       1    -1     0     0   501     0  0.000000000E+00  0.000000000E+00  4.545979517E+01  4.545979517E+01  3.300693538E-07  0.00000E+00  9.000E+00
      -1    -1     0     0     0   502  0.000000000E+00  0.000000000E+00 -1.663796589E+02  1.663796589E+02  1.158141744E-06  0.00000E+00  9.000E+00
      23     2     1     2     0     0  1.938304970E+01 -3.733484045E+00 -1.498539387E+02  1.766127785E+02  9.135769831E+01  0.00000E+00  9.000E+00
      11     1     3     3     0     0  5.205483314E+01 -8.166194596E+00 -1.239439726E+02  1.346792513E+02  5.110000000E-04  0.00000E+00  9.000E+00
     -11     1     3     3     0     0 -3.267178343E+01  4.432710551E+00 -2.590996619E+01  4.193352720E+01  5.110000000E-04  0.00000E+00  9.000E+00
      21     1     1     2   501   512 -6.877943594E+00  3.095941888E+00  1.180838454E+01  1.401174185E+01  6.674994628E-07  0.00000E+00  9.000E+00
      21     1     1     2   512   502 -1.250510611E+01  6.375421571E-01  1.712569049E+01  2.121493374E+01  9.671536473E-07  0.00000E+00  9.000E+00
#rwgt            1          21   267.24663054386860         54217137      233231           0
</event>
<event>
      7  10001  1.41997E+02  8.64543E+00 -1.00000E+00  2.03355E-01
       2    -1     0     0   501     0  0.000000000E+00  0.000000000E+00  9.890789000E+00  9.890789000E+00  4.836327222E-08  0.00000E+00  9.000E+00
      -2    -1     0     0     0   511  0.000000000E+00  0.000000000E+00 -3.588176509E+02  3.588176509E+02  1.310134408E-06  0.00000E+00  9.000E+00
      23     2     1     2     0     0  8.203073602E+00  1.164600172E+01 -2.190590336E+02  2.375438313E+02  9.075952745E+01  0.00000E+00  9.000E+00
      11     1     3     3     0     0  1.312203585E+01 -2.314483493E+01 -1.902641704E+02  1.921153969E+02  5.110000000E-04  0.00000E+00  9.000E+00
     -11     1     3     3     0     0 -4.918962244E+00  3.479083665E+01 -2.879486327E+01  4.542843443E+01  5.110000000E-04  0.00000E+00  9.000E+00
      21     1     1     2   501   502 -1.611699000E+00 -6.051610105E+00 -2.000967538E+01  2.096679917E+01  3.959172812E-07  0.00000E+00  9.000E+00
      21     1     1     2   502   511 -6.591374603E+00 -5.594391614E+00 -1.098581529E+02  1.101978094E+02  1.407704124E-06  0.00000E+00  9.000E+00
#rwgt            1          23   67.666523144269746         54217137      234223           0
</event>
<event>
      7  10001  1.41997E+02  1.35124E+01 -1.00000E+00  1.81762E-01
       2    -1     0     0   501     0  0.000000000E+00  0.000000000E+00  7.370337683E+01  7.370337683E+01  3.829937011E-07  0.00000E+00  9.000E+00
      -2    -1     0     0     0   502  0.000000000E+00  0.000000000E+00 -4.070965506E+01  4.070965506E+01  1.071138379E-07  0.00000E+00  9.000E+00
      23     2     1     2     0     0  6.808917277E+00 -7.203771813E+00  1.486011032E+01  9.124504870E+01  8.947949682E+01  0.00000E+00  9.000E+00
      11     1     3     3     0     0 -3.028581808E+01 -1.460018773E+01  3.488236044E+01  4.844765556E+01  5.110000000E-04  0.00000E+00  9.000E+00
     -11     1     3     3     0     0  3.709473536E+01  7.396415920E+00 -2.002225012E+01  4.279739315E+01  5.110000000E-04  0.00000E+00  9.000E+00
      21     1     1     2   501   511 -6.559618754E+00  2.078399548E+00  3.622503342E+00  7.776302035E+00  6.488095980E-08  0.00000E+00  9.000E+00
      21     1     1     2   511   502 -2.492985232E-01  5.125372265E+00  1.451110810E+01  1.539168116E+01  2.522344369E-07  0.00000E+00  9.000E+00
#rwgt            1          23   209.97855846040832         54217137      234351           0
</event>
<event>
      7  10001  1.41997E+02  7.05848E+00 -1.00000E+00  2.15039E-01
       2    -1     0     0   501     0  0.000000000E+00  0.000000000E+00  7.427408440E+01  7.427408440E+01  2.076006306E-07  0.00000E+00  9.000E+00
      -2    -1     0     0     0   502  0.000000000E+00  0.000000000E+00 -5.105141539E+01  5.105141539E+01  4.389478979E-07  0.00000E+00  9.000E+00
      23     2     1     2     0     0 -1.635967354E+00 -2.175441046E+01  2.619704571E+01  1.003440957E+02  9.437542888E+01  0.00000E+00  9.000E+00
      11     1     3     3     0     0  2.913708754E+01  2.102760033E+01 -8.910902310E+00  3.702072428E+01  5.110000000E-04  0.00000E+00  9.000E+00
     -11     1     3     3     0     0 -3.077305490E+01 -4.278201079E+01  3.510794802E+01  6.332337143E+01  5.110000000E-04  0.00000E+00  9.000E+00
      21     1     1     2   501   512  5.276982539E+00  1.608221591E+01 -5.479473347E+00  1.779069536E+01  5.731061346E-07  0.00000E+00  9.000E+00
      21     1     1     2   512   502 -3.641015185E+00  5.672194557E+00  2.505096647E+00  7.190708719E+00  1.625091217E-07  0.00000E+00  9.000E+00
#rwgt            1          23   2.4182706460141299         54217137      234682           0
</event>
<event>
      7  10001  1.41997E+02  7.00836E+00 -1.00000E+00  2.15475E-01
       2    -1     0     0   501     0  0.000000000E+00  0.000000000E+00  3.856265786E+01  3.856265786E+01  5.090573089E-08  0.00000E+00  9.000E+00
      -2    -1     0     0     0   502  0.000000000E+00  0.000000000E+00 -1.076775095E+02  1.076775095E+02  2.810508528E-07  0.00000E+00  9.000E+00
      23     2     1     2     0     0 -1.857449790E+00  5.468042188E+00 -2.320180764E+01  9.984688663E+01  9.694187581E+01  0.00000E+00  9.000E+00
      11     1     3     3     0     0 -2.137615673E+01 -3.871345862E+01  4.016210467E+00  4.440497609E+01  5.110000000E-04  0.00000E+00  9.000E+00
     -11     1     3     3     0     0  1.951870694E+01  4.418150081E+01 -2.721801810E+01  5.544191054E+01  5.110000000E-04  0.00000E+00  9.000E+00
      21     1     1     2   501   511  6.219022902E-02 -2.198972711E+00 -7.990744986E+00  8.288024737E+00  2.970046009E-07  0.00000E+00  9.000E+00
      21     1     1     2   511   502  1.795259561E+00 -3.269069477E+00 -3.792229905E+01  3.810525603E+01  1.409976743E-06  0.00000E+00  9.000E+00
#rwgt            1          23   74.908292161410742         54217137      235083           0
</event>
<event>
      7  10001  1.41997E+02  6.10931E+00 -1.00000E+00  2.24255E-01
       2    -1     0     0   501     0  0.000000000E+00  0.000000000E+00  2.311401313E+02  2.311401313E+02  1.764956942E-06  0.00000E+00  9.000E+00
      -2    -1     0     0     0   502  0.000000000E+00  0.000000000E+00 -3.436636394E+01  3.436636394E+01  3.365302324E-07  0.00000E+00  9.000E+00
      23     2     1     2     0     0  1.325910468E+01 -4.650488726E+00  2.168669226E+02  2.403562134E+02  1.026762693E+02  0.00000E+00  9.000E+00
      11     1     3     3     0     0 -2.170725801E+01  4.066457548E+01  1.058989506E+02  1.154963224E+02  5.110000000E-04  0.00000E+00  9.000E+00
     -11     1     3     3     0     0  3.496636269E+01 -4.531506421E+01  1.109679720E+02  1.248598910E+02  5.110000000E-04  0.00000E+00  9.000E+00
      21     1     1     2   501   512 -7.568580550E+00  4.400832973E+00 -8.349375702E+00  1.209805013E+01  2.310218558E-06  0.00000E+00  9.000E+00
      21     1     1     2   512   502 -5.690524127E+00  2.496557526E-01 -1.174377959E+01  1.305223168E+01  2.818863088E-06  0.00000E+00  9.000E+00
#rwgt            1          23   7.8302249775828727         54217137      235713           0
</event>
<event>
      7  10001  1.41997E+02  8.12761E+00 -1.00000E+00  2.06771E-01
       2    -1     0     0   501     0  0.000000000E+00  0.000000000E+00  2.731039527E+01  2.731039527E+01  2.166692957E-07  0.00000E+00  9.000E+00
      -2    -1     0     0     0   502  0.000000000E+00  0.000000000E+00 -1.279288418E+02  1.279288418E+02  5.875457777E-07  0.00000E+00  9.000E+00
      23     2     1     2     0     0 -1.279773609E+01  7.300207387E+00 -4.817159732E+01  1.005717105E+02  8.704648812E+01  0.00000E+00  9.000E+00
      11     1     3     3     0     0  1.550254369E+01 -3.411821328E+01 -2.665780000E+01  4.598934267E+01  5.110000000E-04  0.00000E+00  9.000E+00
     -11     1     3     3     0     0 -2.830027977E+01  4.141842067E+01 -2.151379732E+01  5.458236786E+01  5.110000000E-04  0.00000E+00  9.000E+00
      21     1     1     2   511   502  2.946240321E+00  1.434061481E-01 -1.313685997E+01  1.346395139E+01  2.783579613E-07  0.00000E+00  9.000E+00
      21     1     1     2   501   511  9.851495766E+00 -7.443613535E+00 -3.930998924E+01  4.120357515E+01  1.051730364E-06  0.00000E+00  9.000E+00
#rwgt            1          23   38.070956214619400         54217137      236749           0
</event>
<event>
      7  10001  1.41997E+02  1.38722E+00 -1.00000E+00  4.73054E-01
       2    -1     0     0   512     0  0.000000000E+00  0.000000000E+00  1.720733985E+02  1.720733985E+02  8.520092232E-07  0.00000E+00  9.000E+00
      -2    -1     0     0     0   502  0.000000000E+00  0.000000000E+00 -1.712778701E+01  1.712778701E+01  1.189374412E-07  0.00000E+00  9.000E+00
      23     2     1     2     0     0  1.769292370E+00 -9.561288200E+00  1.157648351E+02  1.488034314E+02  9.298610395E+01  0.00000E+00  9.000E+00
      11     1     3     3     0     0  1.299067685E+01  3.782082489E+01  2.931499632E+01  4.958368169E+01  5.110000000E-04  0.00000E+00  9.000E+00
     -11     1     3     3     0     0 -1.122138448E+01 -4.738211309E+01  8.644983882E+01  9.921974976E+01  5.110000000E-04  0.00000E+00  9.000E+00
      21     1     1     2   501   502 -1.956195850E+00  8.186721831E+00  3.475068838E+01  3.575555145E+01  3.568956864E-07  0.00000E+00  9.000E+00
      21     1     1     2   512   501  1.869034804E-01  1.374566369E+00  4.430087938E+00  4.642202575E+00  3.355207729E-08  0.00000E+00  9.000E+00
#rwgt            1          23   184.73426999797485         54217137      237229           0
</event>
<event>
      7  10001  1.41997E+02  1.87487E+01 -1.00000E+00  1.68715E-01
       2    -1     0     0   501     0  0.000000000E+00  0.000000000E+00  7.749446268E+01  7.749446268E+01  3.551329749E-07  0.00000E+00  9.000E+00
      -2    -1     0     0     0   502  0.000000000E+00  0.000000000E+00 -4.758221107E+01  4.758221107E+01  2.215359390E-07  0.00000E+00  9.000E+00
      23     2     1     2     0     0  1.295473417E+01  3.262848291E+00  3.380668002E+01  9.777763168E+01  9.076950108E+01  0.00000E+00  9.000E+00
      11     1     3     3     0     0  1.023216208E+01 -4.311129910E+01  9.371878654E+00  4.528921903E+01  5.110000000E-04  0.00000E+00  9.000E+00
     -11     1     3     3     0     0  2.722572087E+00  4.637414739E+01  2.443480137E+01  5.248841265E+01  5.110000000E-04  0.00000E+00  9.000E+00
      21     1     1     2   511   502 -3.493864588E+00 -4.501203845E+00 -1.294764726E+01  1.414600634E+01  8.849754518E-07  0.00000E+00  9.000E+00
      21     1     1     2   501   511 -9.460869581E+00  1.238355554E+00  9.053218845E+00  1.315303574E+01  4.840991393E-07  0.00000E+00  9.000E+00
#rwgt            1          23   88.166672854840726         54217137      239364           0
</event>
<event>
      7  10001  1.41997E+02  5.65842E+00 -1.00000E+00  2.29493E-01
       2    -1     0     0   512     0  0.000000000E+00  0.000000000E+00  1.279523276E+01  1.279523276E+01  6.635638902E-08  0.00000E+00  9.000E+00
      -2    -1     0     0     0   502  0.000000000E+00  0.000000000E+00 -3.206657453E+02  3.206657453E+02  2.403128152E-06  0.00000E+00  9.000E+00
      23     2     1     2     0     0 -1.818612424E+00 -1.780731162E+01 -2.335962793E+02  2.545171890E+02  9.945536745E+01  0.00000E+00  9.000E+00
      11     1     3     3     0     0  1.236982727E+01 -5.436358391E+01 -9.185024926E+01  1.074471041E+02  5.110000000E-04  0.00000E+00  9.000E+00
     -11     1     3     3     0     0 -1.418843970E+01  3.655627228E+01 -1.417460300E+02  1.470700849E+02  5.110000000E-04  0.00000E+00  9.000E+00
      21     1     1     2   501   502  6.407060022E+00  1.449614241E+01 -7.021107472E+01  7.197766026E+01  7.513593714E-07  0.00000E+00  9.000E+00
      21     1     1     2   512   501 -4.588447598E+00  3.311169214E+00 -4.063158561E+00  6.966128797E+00  9.765595451E-08  0.00000E+00  9.000E+00
#rwgt            1          23   472.58393437232411         54217137      239739           0
</event>
<event>
      7  10001  1.41997E+02  2.28606E+01 -1.00000E+00  1.61714E-01
       2    -1     0     0   501     0  0.000000000E+00  0.000000000E+00  4.461005724E+01  4.461005724E+01  2.212530413E-07  0.00000E+00  9.000E+00
      -2    -1     0     0     0   502  0.000000000E+00  0.000000000E+00 -1.254267721E+02  1.254267721E+02  7.704295653E-07  0.00000E+00  9.000E+00
      23     2     1     2     0     0 -8.705183490E+00 -2.980058741E+01 -5.151335674E+01  1.121404507E+02  9.464670899E+01  0.00000E+00  9.000E+00
      11     1     3     3     0     0 -4.040320977E+01  7.702799939E+00 -2.200720035E-01  4.113150762E+01  5.110000000E-04  0.00000E+00  9.000E+00
     -11     1     3     3     0     0  3.169802628E+01 -3.750338735E+01 -5.129328474E+01  7.100894305E+01  5.110000000E-04  0.00000E+00  9.000E+00
      21     1     1     2   501   511  1.249752006E-02  3.619901231E+01 -3.009291409E+01  4.707390070E+01  1.103549093E-06  0.00000E+00  9.000E+00
      21     1     1     2   511   502  8.692685970E+00 -6.398424903E+00  7.895559812E-01  1.082247796E+01  1.366800162E-07  0.00000E+00  9.000E+00
#rwgt            1          23   108.43639202533689         54217137      240288           0
</event>
<event>
      7  10001  1.41997E+02  2.16800E+00 -1.00000E+00  3.47465E-01
       2    -1     0     0   501     0  0.000000000E+00  0.000000000E+00  1.558411325E+01  1.558411325E+01  3.139755008E-08  0.00000E+00  9.000E+00
      -2    -1     0     0     0   512  0.000000000E+00  0.000000000E+00 -1.877349572E+02  1.877349572E+02  1.408933980E-06  0.00000E+00  9.000E+00
      23     2     1     2     0     0 -1.172890817E+01  7.770112093E+00 -1.485557594E+02  1.746859435E+02  9.082083060E+01  0.00000E+00  9.000E+00
      11     1     3     3     0     0 -4.838443502E+01 -6.552758016E+00 -5.714408413E+01  7.516274703E+01  5.110000000E-04  0.00000E+00  9.000E+00
     -11     1     3     3     0     0  3.665552685E+01  1.432287011E+01 -9.141167525E+01  9.952319644E+01  5.110000000E-04  0.00000E+00  9.000E+00
      21     1     1     2   501   502  1.245650017E+01 -5.727851498E+00 -1.795730159E+01  2.259286081E+01  4.056134218E-07  0.00000E+00  9.000E+00
      21     1     1     2   502   512 -7.275919985E-01 -2.042260595E+00 -5.637782945E+00  6.040266136E+00  7.867897515E-08  0.00000E+00  9.000E+00
#rwgt            1          23   93.444105293506510         54217137      240541           0
</event>
<event>
      7  10001  1.41997E+02  2.53887E+01 -1.00000E+00  1.58248E-01
       1    -1     0     0   501     0  0.000000000E+00  0.000000000E+00  8.568236909E+01  8.568236909E+01  6.349722808E-07  0.00000E+00  9.000E+00
      -1    -1     0     0     0   502  0.000000000E+00  0.000000000E+00 -8.543055429E+01  8.543055429E+01  4.714811133E-07  0.00000E+00  9.000E+00
      23     2     1     2     0     0  3.351129847E+01  1.916544440E+01 -4.146800728E+01  1.074739657E+02  9.132763162E+01  0.00000E+00  9.000E+00
      11     1     3     3     0     0 -2.256335829E+01  1.947491275E+01  9.920417009E+00  3.141324622E+01  5.110000000E-04  0.00000E+00  9.000E+00
     -11     1     3     3     0     0  5.607465676E+01 -3.094683538E-01 -5.138842429E+01  7.606071951E+01  5.110000000E-04  0.00000E+00  9.000E+00
      21     1     1     2   501   511 -8.573820451E+00 -9.666350873E+00  3.320130887E+01  3.562689499E+01  3.610706096E-07  0.00000E+00  9.000E+00
      21     1     1     2   511   502 -2.493747802E+01 -9.499093524E+00  8.518513205E+00  2.801206267E+01  7.074296513E-07  0.00000E+00  9.000E+00
#rwgt            1          21   3.1314357362555607         54217137      241808           0
</event>
<event>
      7  10001  1.41997E+02  5.55635E+00 -1.00000E+00  2.30775E-01
       2    -1     0     0   501     0  0.000000000E+00  0.000000000E+00  1.405928585E+02  1.405928585E+02  1.032949036E-06  0.00000E+00  9.000E+00
      -2    -1     0     0     0   502  0.000000000E+00  0.000000000E+00 -2.339806864E+01  2.339806864E+01  2.295941495E-07  0.00000E+00  9.000E+00
      23     2     1     2     0     0 -3.907397575E-01  6.478877835E+00  1.247355348E+02  1.527952884E+02  8.800748811E+01  0.00000E+00  9.000E+00
      11     1     3     3     0     0  2.792402860E+01  3.021547712E+01  1.005333003E+02  1.086262901E+02  5.110000000E-04  0.00000E+00  9.000E+00
     -11     1     3     3     0     0 -2.831476836E+01 -2.373659929E+01  2.420223456E+01  4.416899830E+01  5.110000000E-04  0.00000E+00  9.000E+00
      21     1     1     2   512   502  1.953777194E-01 -5.148746902E-01 -4.434119840E+00  4.468186115E+00  1.231626054E-07  0.00000E+00  9.000E+00
      21     1     1     2   501   512  1.953620381E-01 -5.964003145E+00 -3.106625107E+00  6.727452667E+00  2.462326598E-07  0.00000E+00  9.000E+00
#rwgt            1          23   199.54202786062214         54217137      242014           0
</event>
<event>
      7  10001  1.41997E+02  4.01060E+00 -1.00000E+00  2.63191E-01
      21    -1     0     0   502   501  0.000000000E+00  0.000000000E+00  1.186485430E+01  1.186485430E+01  9.612278760E-08  0.00000E+00  9.000E+00
      -1    -1     0     0     0   511  0.000000000E+00  0.000000000E+00 -2.933317006E+02  2.933317006E+02  2.408707190E-06  0.00000E+00  9.000E+00
      23     2     1     2     0     0  1.339035099E+01 -1.308435144E+01 -2.263563255E+02  2.446346705E+02  9.087592726E+01  0.00000E+00  9.000E+00
      11     1     3     3     0     0  3.205541722E+01 -1.474037109E+00 -2.191724318E+02  2.215090910E+02  5.110000000E-04  0.00000E+00  9.000E+00
     -11     1     3     3     0     0 -1.866506622E+01 -1.161031433E+01 -7.183893735E+00  2.312557946E+01  5.110000000E-04  0.00000E+00  9.000E+00
      -1     1     1     2     0   501 -1.706389333E+01  1.147499346E+01 -4.064553037E+01  4.555119174E+01  0.000000000E+00  0.00000E+00  9.000E+00
      21     1     1     2   502   511  3.673542333E+00  1.609357975E+00 -1.446499047E+01  1.501069271E+01  4.258664421E-08  0.00000E+00  9.000E+00
#rwgt            1          15   7.5880214749134387         54217137      242699           0
</event>
<event>
      7  10001  1.41997E+02  7.65060E+00 -1.00000E+00  2.10234E-01
       1    -1     0     0   501     0  0.000000000E+00  0.000000000E+00  2.586194179E+01  2.586194179E+01  7.559343452E-08  0.00000E+00  9.000E+00
      -1    -1     0     0     0   502  0.000000000E+00  0.000000000E+00 -1.487259230E+02  1.487259230E+02  7.058356157E-07  0.00000E+00  9.000E+00
      23     2     1     2     0     0 -1.194600675E+00 -1.169901890E+01 -4.236275845E+01  9.298167734E+01  8.193103749E+01  0.00000E+00  9.000E+00
      11     1     3     3     0     0  1.523039579E+01  2.730692561E+01  2.424167651E+00  3.136095871E+01  5.110000000E-04  0.00000E+00  9.000E+00
     -11     1     3     3     0     0 -1.642499646E+01 -3.900594451E+01 -4.478692610E+01  6.162071864E+01  5.110000000E-04  0.00000E+00  9.000E+00
      21     1     1     2   501   511  7.659588707E-01  1.824022488E+00 -3.442011176E+01  3.447691757E+01  5.468302962E-07  0.00000E+00  9.000E+00
      21     1     1     2   511   502  4.286418046E-01  9.874996416E+00 -4.608111097E+01  4.712926984E+01  9.625861283E-07  0.00000E+00  9.000E+00
#rwgt            1          21   11.917250679771673         54217137      243462           0
</event>
<event>
      7  10001  1.41997E+02  4.92529E+00 -1.00000E+00  2.43840E-01
       1    -1     0     0   501     0  0.000000000E+00  0.000000000E+00  1.638581433E+02  1.638581433E+02  1.265445975E-06  0.00000E+00  9.000E+00
      -1    -1     0     0     0   502  0.000000000E+00  0.000000000E+00 -1.672869789E+01  1.672869789E+01  1.452847651E-07  0.00000E+00  9.000E+00
      23     2     1     2     0     0 -1.127192156E+00  9.496219143E+00  1.166151911E+02  1.486033458E+02  9.161005855E+01  0.00000E+00  9.000E+00
      11     1     3     3     0     0 -1.820346316E+00 -3.108532502E+01  1.000186992E+02  1.047537650E+02  5.110000000E-04  0.00000E+00  9.000E+00
     -11     1     3     3     0     0  6.931541596E-01  4.058154416E+01  1.659649195E+01  4.384958078E+01  5.110000000E-04  0.00000E+00  9.000E+00
      21     1     1     2   501   512  3.009807396E-02 -1.776690172E-01  3.509284342E-01  3.944907346E-01  9.507329717E-09  0.00000E+00  9.000E+00
      21     1     1     2   512   502  1.097094082E+00 -9.318550126E+00  3.016332586E+01  3.158900471E+01  4.846131388E-07  0.00000E+00  9.000E+00
#rwgt            1          21   69.018164179183401         54217137      243897           0
</event>
<event>
      7  10001  1.41997E+02  6.31490E+00 -1.00000E+00  2.22070E-01
       2    -1     0     0   501     0  0.000000000E+00  0.000000000E+00  6.974142396E+01  6.974142396E+01  6.677037432E-07  0.00000E+00  9.000E+00
      -2    -1     0     0     0   502  0.000000000E+00  0.000000000E+00 -3.538158702E+01  3.538158702E+01  2.628435290E-07  0.00000E+00  9.000E+00
      23     2     1     2     0     0 -4.394474995E+00 -5.168789287E+00  3.825983659E+01  9.292578410E+01  8.441183839E+01  0.00000E+00  9.000E+00
      11     1     3     3     0     0  3.793799929E+01  1.067423893E+01  1.974742892E+01  4.408165283E+01  5.110000000E-04  0.00000E+00  9.000E+00
     -11     1     3     3     0     0 -4.233247428E+01 -1.584302822E+01  1.851240768E+01  4.884413128E+01  5.110000000E-04  0.00000E+00  9.000E+00
      21     1     1     2   511   502  2.734068264E-01  6.522023233E+00 -4.337833609E+00  7.837623285E+00  6.171919369E-07  0.00000E+00  9.000E+00
      21     1     1     2   501   511  4.121068169E+00 -1.353233946E+00  4.378339525E-01  4.359603598E+00  2.877877632E-07  0.00000E+00  9.000E+00
#rwgt            1          23   71.942159676097191         54217137      244516           0
</event>
</LesHouchesEvents>
 #Random number generator exit values:     54217137        244869             0
