<LesHouchesEvents version="3.0">
<!--
file generated with POWHEG-BOX-V2
Input file powheg.input contained:
numevts 100    ! number of events to be generated
ih1   1           ! hadron 1 (1 for protons, -1 for antiprotons)
ih2   1           ! hadron 2 (1 for protons, -1 for antiprotons)
lhans1 11000
lhans2 11000
ebeam1 4000d0     ! energy of beam 1
ebeam2 4000d0     ! energy of beam 2

bornktmin 1d0    ! Generation cut; minimmum kt in underlying born
bornsuppfact 800d0 ! (default 0d0) mass param for Born suppression factor. If < 0 suppfact = 1
use-old-grid    1 ! if 1 use old grid if file pwggrids.dat is present (<> 1 regenerate)
use-old-ubound  1 ! if 1 use norm of upper bounding function stored in pwgubound.dat, if present; <>

ncall1  100  ! number of calls for initializing the integration grid
itmx1    1    ! number of iterations for initializing the integration grid
ncall1rm 300
itmx1rm 1
ncall2  100  ! number of calls for computing the integral and finding upper bound
itmx2    10     ! number of iterations for computing the integral and finding upper bound
foldcsi   1    ! number of folds on csi integration
foldy     1    ! number of folds on  y  integration
foldphi   1    ! number of folds on phi integration
nubound 100  ! number of bbarra calls to setup norm of upper bounding function
icsimax  1     ! <= 100, number of csi subdivision when computing the upper bounds
iymax    1     ! <= 100, number of y subdivision when computing the upper bounds
xupbound 2d0   ! increase upper bound for radiation generation
#testplots 1
withnegweights 1

withdamp 1

manyseeds 1
parallelstage 4
xgriditeration 1

storemintupb 1
fastbtlbound 1

minlo 1            ! default 1,
doublefsr 1        ! default 1, see arXiv:1303.3922
storeinfo_rwgt 1   ! default 1, store info to allow for reweighting

#bornonly 1
#LOevents 1

renscfact 1d0      ! default 1
facscfact 1d0      ! default 1

nohad 1            ! only used by main-PYTHIA-lhef and main-PYTHIA8-lhef
changescalup 1     ! default 1, see arXiv:1303.3922, only used at
                   ! the analysis level

htlhcut 20         ! cut on total ht at Les Houches level,
                   ! only used at the analysis level


End of powheg.input content
PDF package: lha
 Random number generator initialized with:            1             0             0
-->
<init>
     2212     2212  4.00000E+03  4.00000E+03     -1     -1     -1     -1     -4      1
 -1.00000E+00 -1.00000E+00  1.00000E+00  10001
</init>
<event>
      6  10001  3.37308E+07  2.06906E+01 -1.00000E+00  1.65159E-01
       2    -1     0     0   502     0  0.000000000E+00  0.000000000E+00  4.615388147E+02  4.615388147E+02  1.811777444E-07  0.00000E+00  9.000E+00
      -4    -1     0     0     0   503  0.000000000E+00  0.000000000E+00 -2.705829073E+02  2.705829073E+02  2.422467023E-06  0.00000E+00  9.000E+00
       2     1     1     2   501     0  5.346102736E+01 -1.059978875E+01  4.388724427E+02  4.422437867E+02  3.300000000E-01  0.00000E+00  9.000E+00
      -4     1     1     2     0   501 -2.408103379E+01 -3.573175041E+00 -2.449051860E+02  2.461167689E+02  1.500000000E+00  0.00000E+00  9.000E+00
      21     1     1     2   511   503 -1.848774592E+01  2.296407682E+01 -1.876056958E-01  2.948187188E+01  1.877959236E-06  0.00000E+00  9.000E+00
      21     1     1     2   502   511 -1.089224765E+01 -8.791113028E+00 -2.823743559E+00  1.427929462E+01  7.586993249E-07  0.00000E+00  9.000E+00
#rwgt            1          73   1989.3880169425624                1         421           0
</event>
<event>
      6  10001 -6.89056E+05  1.76853E+01 -1.00000E+00  1.70897E-01
      21    -1     0     0   505   501  0.000000000E+00  0.000000000E+00  1.930207798E+02  1.930207798E+02  1.305385751E-06  0.00000E+00  9.000E+00
      21    -1     0     0   502   503  0.000000000E+00  0.000000000E+00 -1.767338007E+02  1.767338007E+02  1.318647967E-06  0.00000E+00  9.000E+00
      21     1     1     2   504   503  5.497682372E+01 -1.947576889E+01 -3.279901131E+01  6.691436215E+01  1.676528801E-06  0.00000E+00  9.000E+00
      21     1     1     2   505   504  5.683099162E+01 -1.012008627E+02 -1.957419623E+01  1.177052479E+02  3.011867391E-06  0.00000E+00  9.000E+00
      21     1     1     2   512   501 -9.645844004E+01  1.212463077E+02  5.449212015E+01  1.642385124E+02  4.329411756E-06  0.00000E+00  9.000E+00
      21     1     1     2   502   512 -1.534937530E+01 -5.696761718E-01  1.416806644E+01  2.089645806E+01  3.652870012E-07  0.00000E+00  9.000E+00
#rwgt            1         276  -7710.0300944598994                1        2592           0
</event>
<event>
      6  10001  7.25285E+07  1.31580E+01 -1.00000E+00  1.82913E-01
       1    -1     0     0   501     0  0.000000000E+00  0.000000000E+00  6.055359737E+02  6.055359737E+02  5.019512611E-06  0.00000E+00  9.000E+00
      21    -1     0     0   503   502  0.000000000E+00  0.000000000E+00 -4.018426495E+01  4.018426495E+01  2.290297476E-07  0.00000E+00  9.000E+00
       1     1     1     2   511     0 -1.397925849E+01 -1.617580910E-01  2.176887647E+02  2.181374635E+02  3.300000000E-01  0.00000E+00  9.000E+00
      21     1     1     2   501   502  1.334184266E+01 -3.965710628E+01 -2.268938108E+01  4.759725683E+01  2.489701254E-06  0.00000E+00  9.000E+00
      21     1     1     2   503   504  8.445831229E+00  3.446677343E+01  6.161758162E+01  7.110567418E+01  2.742850616E-07  0.00000E+00  9.000E+00
      21     1     1     2   504   511 -7.808415402E+00  5.352090941E+00  3.087347435E+02  3.088798441E+02  5.399832578E-06  0.00000E+00  9.000E+00
#rwgt            1          42   13055.954333776297                1        5259           0
</event>
<event>
      6  10001  3.01486E+05  2.31868E+01 -1.00000E+00  1.61237E-01
      21    -1     0     0   505   501  0.000000000E+00  0.000000000E+00  7.249869875E+02  7.249869875E+02  7.508140854E-06  0.00000E+00  9.000E+00
      21    -1     0     0   512   503  0.000000000E+00  0.000000000E+00 -1.209817488E+02  1.209817488E+02  2.300256902E-07  0.00000E+00  9.000E+00
      21     1     1     2   504   503  1.695381015E+02  1.058384332E+02  7.656683956E+01  2.140266869E+02  1.866779572E-06  0.00000E+00  9.000E+00
      21     1     1     2   502   501 -1.449768703E+02 -1.260501125E+02  4.929814318E+02  5.290913115E+02  6.661167831E-06  0.00000E+00  9.000E+00
      21     1     1     2   505   504 -4.386056850E+01  3.306329102E+01  5.053315583E+01  7.463598676E+01  1.051428363E-06  0.00000E+00  9.000E+00
      21     1     1     2   512   502  1.929933734E+01 -1.285161174E+01 -1.607618843E+01  2.821475111E+01  2.231802737E-07  0.00000E+00  9.000E+00
#rwgt            1         276   9850.1874048974278                1        7357           0
</event>
<event>
      6  10001  5.11998E+09  8.54609E+00 -1.00000E+00  2.03985E-01
       2    -1     0     0   501     0  0.000000000E+00  0.000000000E+00  5.893617178E+02  5.893617178E+02  3.701064076E-06  0.00000E+00  9.000E+00
      21    -1     0     0   503   502  0.000000000E+00  0.000000000E+00 -4.873415075E+01  4.873415075E+01  3.959580067E-07  0.00000E+00  9.000E+00
       2     1     1     2   504     0 -8.562406442E+00  1.013957950E+01  4.892596844E+02  4.894397548E+02  3.300000000E-01  0.00000E+00  9.000E+00
      21     1     1     2   501   502  4.054588125E+00 -1.359408594E+01 -4.687553656E+01  4.897504247E+01  2.945881269E-06  0.00000E+00  9.000E+00
      21     1     1     2   511   504  8.486211986E+00 -1.023985219E+00  8.052516261E+01  8.097756574E+01  1.026798896E-06  0.00000E+00  9.000E+00
      21     1     1     2   503   511 -3.978393669E+00  4.478491661E+00  1.771825662E+01  1.870350559E+01  2.690708159E-07  0.00000E+00  9.000E+00
#rwgt            1          84   1063991.7852577579                1       10091           0
</event>
<event>
      6  10001  6.82425E+05  7.62136E+01 -1.00000E+00  1.29375E-01
       2    -1     0     0   501     0  0.000000000E+00  0.000000000E+00  8.777272147E+02  8.777272147E+02  6.110054440E-06  0.00000E+00  9.000E+00
      21    -1     0     0   504   503  0.000000000E+00  0.000000000E+00 -3.509000747E+01  3.509000747E+01  4.915940637E-08  0.00000E+00  9.000E+00
       2     1     1     2   504     0  1.032947949E+02  4.203666220E+01  2.384118353E+02  2.632056377E+02  3.300000000E-01  0.00000E+00  9.000E+00
      21     1     1     2   502   503 -1.296807725E+02  2.006453287E+01  3.002695839E+02  3.276911827E+02  6.487067984E-06  0.00000E+00  9.000E+00
      21     1     1     2   501   512  4.841351680E+01 -2.861869772E+01  1.064908464E+02  1.204292275E+02  2.199344351E-06  0.00000E+00  9.000E+00
      21     1     1     2   512   502 -2.202753916E+01 -3.348249735E+01  1.974649417E+02  2.014911743E+02  1.693714728E-06  0.00000E+00  9.000E+00
#rwgt            1          84   1813792.9617067215                1       15625           0
</event>
<event>
      6  10001 -1.86673E+10  8.57249E+00 -1.00000E+00  2.03817E-01
      21    -1     0     0   505   501  0.000000000E+00  0.000000000E+00  1.147089209E+02  1.147089209E+02  9.078840846E-07  0.00000E+00  9.000E+00
      21    -1     0     0   501   502  0.000000000E+00  0.000000000E+00 -1.579719334E+00  1.579719334E+00  1.308996478E-08  0.00000E+00  9.000E+00
      21     1     1     2   503   502  5.039657592E-02 -9.143139486E+00  3.144257522E+01  3.274500077E+01  6.100674159E-07  0.00000E+00  9.000E+00
      21     1     1     2   504   503 -5.343903284E+00  5.593201870E+00  2.357360910E+01  2.481040619E+01  7.543959130E-07  0.00000E+00  9.000E+00
      21     1     1     2   505   511  8.661995236E-01  2.662952337E+00  9.316286991E+00  9.728042972E+00  3.152099067E-07  0.00000E+00  9.000E+00
      21     1     1     2   511   504  4.427307185E+00  8.869852797E-01  4.879673027E+01  4.900519031E+01  1.165006522E-06  0.00000E+00  9.000E+00
#rwgt            1         276  -81102.655452961597                1       16287           0
</event>
<event>
      6  10001  6.80596E+05  2.13644E+01 -1.00000E+00  1.64035E-01
      -3    -1     0     0     0   502  0.000000000E+00  0.000000000E+00  8.321469803E+02  8.321469803E+02  2.678244469E-06  0.00000E+00  9.000E+00
       1    -1     0     0   503     0  0.000000000E+00  0.000000000E+00 -1.620386950E+02  1.620386950E+02  1.112156497E-06  0.00000E+00  9.000E+00
       1     1     1     2   501     0 -4.126457341E+00  9.578915027E+01 -8.653883072E+01  1.291575282E+02  3.300000000E-01  0.00000E+00  9.000E+00
      -3     1     1     2     0   501 -1.445995041E+01 -1.702138695E+02  7.620989351E+02  7.810101718E+02  5.000000000E-01  0.00000E+00  9.000E+00
      21     1     1     2   512   502  2.738559723E+01  4.871493451E+01 -9.029504316E+00  5.660960809E+01  1.993945056E-06  0.00000E+00  9.000E+00
      21     1     1     2   503   512 -8.799189481E+00  2.570978477E+01  3.577685230E+00  2.740836733E+01  7.659437244E-07  0.00000E+00  9.000E+00
#rwgt            1         128   1895.0362924337223                1       18311           0
</event>
<event>
      6  10001 -7.36843E+08  1.73691E+01 -1.00000E+00  1.71583E-01
      21    -1     0     0   505   501  0.000000000E+00  0.000000000E+00  3.113971128E+02  3.113971128E+02  4.993207968E-07  0.00000E+00  9.000E+00
      21    -1     0     0   503   504  0.000000000E+00  0.000000000E+00 -5.590387751E+02  5.590387751E+02  4.241113792E-06  0.00000E+00  9.000E+00
      21     1     1     2   505   504 -6.270039990E+00  1.076493754E+01 -3.791255413E+02  3.793301640E+02  4.726178845E-06  0.00000E+00  9.000E+00
      21     1     1     2   503   502 -1.098153288E+01  1.087199139E+01 -1.787357596E+02  1.794025251E+02  3.113033899E-06  0.00000E+00  9.000E+00
      21     1     1     2   502   511  1.166841461E+01 -8.789310361E+00  1.057457435E+02  1.067500171E+02  4.080204710E-06  0.00000E+00  9.000E+00
      21     1     1     2   511   501  5.583158263E+00 -1.284761856E+01  2.044738950E+02  2.049531817E+02  4.167758891E-06  0.00000E+00  9.000E+00
#rwgt            1         276  -254218.54131868648                1       22241           0
</event>
<event>
      6  10001  2.35201E+07  3.67911E+01 -1.00000E+00  1.47127E-01
      21    -1     0     0   502   501  0.000000000E+00  0.000000000E+00  3.278927480E+02  3.278927480E+02  2.532124757E-06  0.00000E+00  9.000E+00
       2    -1     0     0   501     0  0.000000000E+00  0.000000000E+00 -5.015719579E+02  5.015719579E+02  1.206518420E-06  0.00000E+00  9.000E+00
       2     1     1     2   504     0  3.394742043E+01 -4.942768565E+01 -4.202150626E+02  4.244718262E+02  3.300000000E-01  0.00000E+00  9.000E+00
      21     1     1     2   502   503 -2.028455744E+01  2.650297095E+01  3.099049775E+02  3.116969134E+02  5.341620562E-06  0.00000E+00  9.000E+00
      21     1     1     2   503   512 -9.239055060E+00  9.062654069E+00 -7.409651615E+01  7.521825273E+01  7.570454194E-07  0.00000E+00  9.000E+00
      21     1     1     2   512   504 -4.423807933E+00  1.386206063E+01  1.072739146E+01  1.807771360E+01  2.075213170E-07  0.00000E+00  9.000E+00
#rwgt            1         234   700034278.97058892                1       27286           0
</event>
<event>
      6  10001  1.34655E+06  4.42181E+01 -1.00000E+00  1.42188E-01
      21    -1     0     0   505   501  0.000000000E+00  0.000000000E+00  4.396789098E+01  4.396789098E+01  2.428671023E-07  0.00000E+00  9.000E+00
      21    -1     0     0   501   502  0.000000000E+00  0.000000000E+00 -7.445605345E+02  7.445605345E+02  5.299572039E-06  0.00000E+00  9.000E+00
      21     1     1     2   503   502 -2.718540680E+01 -5.850711556E+00 -3.314323004E+02  3.325968234E+02  7.545679617E-06  0.00000E+00  9.000E+00
      21     1     1     2   504   503 -1.004837113E+02 -4.537752967E+01 -2.161681115E+02  2.426617994E+02  3.488640395E-06  0.00000E+00  9.000E+00
      21     1     1     2   511   504  9.421904790E+01  3.501092562E+01 -1.429730704E+02  1.747692558E+02  1.464638179E-06  0.00000E+00  9.000E+00
      21     1     1     2   505   511  3.345007022E+01  1.621731560E+01 -1.001916116E+01  3.850054692E+01  1.808579617E-06  0.00000E+00  9.000E+00
#rwgt            1         276   1170429.8266292899                1       29200           0
</event>
<event>
      6  10001 -7.50716E+06  4.61853E+01 -1.00000E+00  1.41069E-01
       1    -1     0     0   501     0  0.000000000E+00  0.000000000E+00  2.036041954E+02  2.036041954E+02  7.025714640E-07  0.00000E+00  9.000E+00
      21    -1     0     0   502   501  0.000000000E+00  0.000000000E+00 -5.676779500E+01  5.676779500E+01  2.925866392E-07  0.00000E+00  9.000E+00
       1     1     1     2   504     0  4.020290428E+01 -5.938703145E+01  1.247203179E+02  1.438692449E+02  3.300000000E-01  0.00000E+00  9.000E+00
      21     1     1     2   503   504 -4.439634749E+01  1.044050525E-01  2.582960010E+01  5.136355530E+01  8.004966300E-07  0.00000E+00  9.000E+00
      -4     1     1     2     0   503 -4.403535559E-01  5.766037452E+00 -9.361586937E+00  1.110542251E+01  1.500000000E+00  0.00000E+00  9.000E+00
       4     1     1     2   502     0  4.633796769E+00  5.351658895E+01  5.648069290E+00  5.403376770E+01  1.500000000E+00  0.00000E+00  9.000E+00
#rwgt            1          42  -70072.366367002425                1       31358           0
</event>
<event>
      6  10001  2.18128E+09  6.02166E+00 -1.00000E+00  2.25223E-01
      21    -1     0     0   503   504  0.000000000E+00  0.000000000E+00  6.179712478E+01  6.179712478E+01  4.077644208E-07  0.00000E+00  9.000E+00
       2    -1     0     0   501     0  0.000000000E+00  0.000000000E+00 -1.107493848E+03  1.107493848E+03  5.631279952E-06  0.00000E+00  9.000E+00
       1     1     1     2   501     0  1.539346006E+00  4.437341657E+00 -2.606680833E+01  2.648861989E+01  3.300000000E-01  0.00000E+00  9.000E+00
      -1     1     1     2     0   504  6.413824927E+00 -2.108693147E+01  1.798905009E+01  2.845190068E+01  3.300000000E-01  0.00000E+00  9.000E+00
      21     1     1     2   503   502 -7.585031540E+00  1.063929429E+01  3.724454136E+01  3.947002847E+01  3.017821160E-07  0.00000E+00  9.000E+00
       2     1     1     2   502     0 -3.681393929E-01  6.010295524E+00 -1.074863507E+03  1.074880424E+03  3.300000000E-01  0.00000E+00  9.000E+00
#rwgt            1         271   5565.8344410258251                1       37811           0
</event>
<event>
      6  10001  7.88966E+07  3.11582E+01 -1.00000E+00  1.51903E-01
       4    -1     0     0   501     0  0.000000000E+00  0.000000000E+00  1.751136740E+01  1.751136740E+01  4.895752962E-08  0.00000E+00  9.000E+00
      21    -1     0     0   503   502  0.000000000E+00  0.000000000E+00 -2.046060072E+02  2.046060072E+02  1.323292163E-06  0.00000E+00  9.000E+00
       4     1     1     2   504     0  1.137047520E+01  4.636409053E+01 -5.134880646E+01  7.012750190E+01  1.500000000E+00  0.00000E+00  9.000E+00
      21     1     1     2   501   502 -1.280598490E+01 -3.874159060E+01 -5.031097985E+01  6.477730146E+01  1.575188425E-06  0.00000E+00  9.000E+00
      21     1     1     2   511   504  3.518468647E+00 -4.529281913E+00 -8.906316726E+00  1.059322868E+01  3.938810047E-07  0.00000E+00  9.000E+00
      21     1     1     2   503   511 -2.082958951E+00 -3.093218020E+00 -7.652853681E+01  7.661934261E+01  2.350401476E-06  0.00000E+00  9.000E+00
#rwgt            1         126   4570.4399269760825                1       40733           0
</event>
<event>
      6  10001 -5.79015E+08  2.45219E+01 -1.00000E+00  1.59379E-01
      21    -1     0     0   505   501  0.000000000E+00  0.000000000E+00  1.240899048E+01  1.240899048E+01  9.071834797E-08  0.00000E+00  9.000E+00
      21    -1     0     0   502   503  0.000000000E+00  0.000000000E+00 -4.237362215E+02  4.237362215E+02  1.781486072E-06  0.00000E+00  9.000E+00
      21     1     1     2   502   501  3.208491002E+00 -2.688956831E+01 -5.623207797E+01  6.241305866E+01  1.240700757E-06  0.00000E+00  9.000E+00
      21     1     1     2   505   504  6.678913861E+00  1.365442367E+01  2.544385397E+00  1.541184847E+01  4.261264376E-07  0.00000E+00  9.000E+00
       3     1     1     2   504     0 -6.447051439E+00 -1.651728620E+00 -9.255083046E+01  9.279115744E+01  5.000000000E-01  0.00000E+00  9.000E+00
      -3     1     1     2     0   503 -3.440353423E+00  1.488687326E+01 -2.650887080E+02  2.655291475E+02  5.000000000E-01  0.00000E+00  9.000E+00
#rwgt            1         276  -924345.81902302976                1       43957           0
</event>
<event>
      6  10001  1.23292E+05  6.65660E+01 -1.00000E+00  1.32335E-01
      21    -1     0     0   505   501  0.000000000E+00  0.000000000E+00  6.567357416E+02  6.567357416E+02  4.853645846E-06  0.00000E+00  9.000E+00
      21    -1     0     0   503   504  0.000000000E+00  0.000000000E+00 -1.479781984E+02  1.479781984E+02  1.190423336E-06  0.00000E+00  9.000E+00
      21     1     1     2   505   504 -1.761598867E+02 -2.314517491E+02  2.660343565E+02  3.941782550E+02  7.479096756E-07  0.00000E+00  9.000E+00
      21     1     1     2   502   501  5.261872221E+01 -9.178153502E+00  7.451683421E+01  9.168275197E+01  4.138854533E-06  0.00000E+00  9.000E+00
      21     1     1     2   503   511  8.045096196E+00  9.240925157E+00  8.230539388E+00  1.476008297E+01  4.718948793E-07  0.00000E+00  9.000E+00
      21     1     1     2   511   502  1.154960683E+02  2.313889775E+02  1.599758131E+02  3.040928501E+02  1.002588737E-05  0.00000E+00  9.000E+00
#rwgt            1         276   934.65128375082850                1       44560           0
</event>
<event>
      6  10001  4.32990E+09  1.51200E+01 -1.00000E+00  1.77055E-01
      21    -1     0     0   505   501  0.000000000E+00  0.000000000E+00  5.348412345E+01  5.348412345E+01  1.372675999E-07  0.00000E+00  9.000E+00
      21    -1     0     0   501   502  0.000000000E+00  0.000000000E+00 -5.155850420E+01  5.155850420E+01  3.063600327E-07  0.00000E+00  9.000E+00
      21     1     1     2   505   504  1.010196148E+01 -5.824825894E+00  3.935284892E+01  4.104418279E+01  9.806549110E-07  0.00000E+00  9.000E+00
      21     1     1     2   503   502 -1.440506834E+01  5.860033693E+00 -4.493691629E+01  4.755178687E+01  6.106667685E-07  0.00000E+00  9.000E+00
      21     1     1     2   504   512  6.456404295E+00 -3.833976812E+00 -2.826195575E-01  7.514280300E+00  1.898167093E-07  0.00000E+00  9.000E+00
      21     1     1     2   512   503 -2.153297435E+00  3.798769013E+00  7.792306176E+00  8.932377701E+00  8.752029437E-08  0.00000E+00  9.000E+00
#rwgt            1         276   40925170.595326632                1       45586           0
</event>
<event>
      6  10001 -2.70860E+05  1.80730E+01 -1.00000E+00  1.70080E-01
      21    -1     0     0   503   502  0.000000000E+00  0.000000000E+00  1.062963649E+02  1.062963649E+02  6.432976463E-07  0.00000E+00  9.000E+00
       2    -1     0     0   511     0  0.000000000E+00  0.000000000E+00 -2.163675491E+03  2.163675491E+03  1.649865434E-05  0.00000E+00  9.000E+00
       2     1     1     2   504     0 -1.136852326E+02  1.950689041E+02 -1.160591840E+03  1.182349245E+03  3.300000000E-01  0.00000E+00  9.000E+00
      21     1     1     2   503   504  3.019698442E+00 -5.176820745E+01 -2.883575493E+01  5.933436309E+01  1.059728331E-06  0.00000E+00  9.000E+00
      21     1     1     2   501   502  9.861899642E+01 -1.567734309E+02 -2.703212692E+01  1.871746537E+02  6.719276494E-06  0.00000E+00  9.000E+00
      21     1     1     2   511   501  1.204653776E+01  1.347273429E+01 -8.409194042E+02  8.411135940E+02  1.154828045E-06  0.00000E+00  9.000E+00
#rwgt            1         234  -2496534.6813801476                1       46407           0
</event>
<event>
      6  10001 -3.00939E+05  2.58691E+02 -1.00000E+00  1.07724E-01
      -2    -1     0     0     0   501  0.000000000E+00  0.000000000E+00  5.079786432E+02  5.079786432E+02  2.416328804E-06  0.00000E+00  9.000E+00
      21    -1     0     0   503   504  0.000000000E+00  0.000000000E+00 -1.386782618E+02  1.386782618E+02  1.060789414E-06  0.00000E+00  9.000E+00
      -2     1     1     2     0   504 -6.673440106E+01  1.857527369E+02  3.255251972E+02  3.806892729E+02  3.300000000E-01  0.00000E+00  9.000E+00
      21     1     1     2   502   501 -3.336975533E+01  5.094929609E+00  3.688930258E+01  5.000319513E+01  8.602867708E-07  0.00000E+00  9.000E+00
      21     1     1     2   503   512 -2.027693563E-01 -1.003486612E-01 -2.445185039E-01  3.331284503E-01  8.932397652E-09  0.00000E+00  9.000E+00
      21     1     1     2   512   502  1.003069257E+02 -1.907473179E+02  7.130400098E+00  2.156313086E+02  5.472535475E-06  0.00000E+00  9.000E+00
#rwgt            1          63  -414.64871152844910                1       52546           0
</event>
<event>
      6  10001  1.19090E+09  1.26407E+01 -1.00000E+00  1.84680E-01
      -4    -1     0     0     0   501  0.000000000E+00  0.000000000E+00  5.804568561E+01  5.804568561E+01  3.650950137E-07  0.00000E+00  9.000E+00
      21    -1     0     0   502   503  0.000000000E+00  0.000000000E+00 -2.822742642E+01  2.822742642E+01  4.907434357E-08  0.00000E+00  9.000E+00
       1     1     1     2   502     0 -5.618730621E+00  1.343767133E+01 -1.284476199E+01  1.942261453E+01  3.300000000E-01  0.00000E+00  9.000E+00
      -1     1     1     2     0   511 -2.305535522E+00 -1.494385920E+01 -1.537760254E+00  1.520223762E+01  3.300000000E-01  0.00000E+00  9.000E+00
      -4     1     1     2     0   503 -1.276694707E+00  6.590000237E+00  3.956675996E+01  4.016013629E+01  1.500000000E+00  0.00000E+00  9.000E+00
      21     1     1     2   511   501  9.200960850E+00 -5.083812365E+00  4.634021471E+00  1.148812359E+01  2.309645599E-07  0.00000E+00  9.000E+00
#rwgt            1         100   35.584113870344062                1       53836           0
</event>
<event>
      6  10001  2.27069E+06  1.88982E+02 -1.00000E+00  1.12550E-01
      21    -1     0     0   505   501  0.000000000E+00  0.000000000E+00  5.099117504E+02  5.099117504E+02  2.806996771E-06  0.00000E+00  9.000E+00
      21    -1     0     0   502   503  0.000000000E+00  0.000000000E+00 -4.614063914E+01  4.614063914E+01  3.939274598E-07  0.00000E+00  9.000E+00
      21     1     1     2   502   501  3.374373222E+01 -8.914163385E+00 -9.081078915E+00  3.606338541E+01  8.701375874E-07  0.00000E+00  9.000E+00
      21     1     1     2   505   504 -1.963776164E+01  1.058675828E+02  1.964238407E+02  2.239998035E+02  9.415763502E-07  0.00000E+00  9.000E+00
      21     1     1     2   512   503 -3.802000446E+00  7.670620552E-01  1.733532302E+00  4.248379200E+00  1.722875085E-07  0.00000E+00  9.000E+00
      21     1     1     2   504   512 -1.030397013E+01 -9.772048149E+01  2.746948172E+02  2.917408215E+02  3.849958639E-07  0.00000E+00  9.000E+00
#rwgt            1         276   278491.36388233217                1       55849           0
</event>
<event>
      6  10001 -1.86000E+07  1.56289E+01 -1.00000E+00  1.75716E-01
      21    -1     0     0   505   501  0.000000000E+00  0.000000000E+00  4.060145561E+02  4.060145561E+02  3.504487075E-06  0.00000E+00  9.000E+00
      21    -1     0     0   502   503  0.000000000E+00  0.000000000E+00 -6.649105462E+02  6.649105462E+02  2.302974661E-06  0.00000E+00  9.000E+00
      21     1     1     2   502   501  5.309971870E+01 -2.714433486E+01  3.894638515E+02  3.940031557E+02  4.409605935E-06  0.00000E+00  9.000E+00
      21     1     1     2   505   504 -6.674492844E+00  3.399069592E+01 -1.010418498E+01  3.608338701E+01  7.843709815E-07  0.00000E+00  9.000E+00
      21     1     1     2   504   511 -4.455770342E+01  5.376867116E+00 -5.226693209E+02  5.245927169E+02  3.783679790E-06  0.00000E+00  9.000E+00
      21     1     1     2   511   503 -1.867522435E+00 -1.222322818E+01 -1.155863358E+02  1.162458428E+02  1.534114331E-06  0.00000E+00  9.000E+00
#rwgt            1         276  -134222.65088716790                1       57475           0
</event>
<event>
      6  10001  2.96609E+11  8.41956E+00 -1.00000E+00  2.04805E-01
      21    -1     0     0   505   501  0.000000000E+00  0.000000000E+00  2.118969509E+02  2.118969509E+02  1.028943849E-06  0.00000E+00  9.000E+00
      21    -1     0     0   503   504  0.000000000E+00  0.000000000E+00 -6.200597582E+00  6.200597582E+00  2.433953050E-08  0.00000E+00  9.000E+00
      21     1     1     2   503   502 -3.703937319E+00  6.243653352E-01 -3.435167125E+00  5.090123467E+00  3.140890161E-07  0.00000E+00  9.000E+00
      21     1     1     2   502   501 -1.530482650E+00  1.765151176E+00  2.046668192E+02  2.046801530E+02  7.628532406E-07  0.00000E+00  9.000E+00
      21     1     1     2   505   512  8.326616922E-01 -1.823902142E+00  3.085947847E+00  3.680084052E+00  4.816821179E-08  0.00000E+00  9.000E+00
      21     1     1     2   512   504  4.401758277E+00 -5.656143698E-01  1.378753421E+00  4.647188025E+00  2.211962491E-07  0.00000E+00  9.000E+00
#rwgt            1         276   3437.3040378843216                1       63641           0
</event>
<event>
      6  10001  1.20535E+08  1.54436E+00 -1.00000E+00  4.25120E-01
      21    -1     0     0   503   504  0.000000000E+00  0.000000000E+00  1.836163633E+02  1.836163633E+02  1.259726888E-06  0.00000E+00  9.000E+00
      -2    -1     0     0     0   501  0.000000000E+00  0.000000000E+00 -1.701119475E+01  1.701119475E+01  4.959912165E-08  0.00000E+00  9.000E+00
      -2     1     1     2     0   504 -7.687807731E+00 -3.966464861E+01  1.886056900E+01  4.458942364E+01  3.300000000E-01  0.00000E+00  9.000E+00
      21     1     1     2   502   501 -6.183489812E+00  1.122446210E+00  6.964047112E+00  9.380478875E+00  1.870819990E-07  0.00000E+00  9.000E+00
      21     1     1     2   511   502  1.266020853E+01  3.142504187E+01  1.166324306E+02  1.214534396E+02  1.637971012E-06  0.00000E+00  9.000E+00
      21     1     1     2   503   511  1.211089013E+00  7.117160534E+00  2.414812188E+01  2.520421593E+01  2.672276561E-07  0.00000E+00  9.000E+00
#rwgt            1         228   20785.137594838219                1       64300           0
</event>
<event>
      6  10001 -1.08126E+09  5.05524E+00 -1.00000E+00  2.37679E-01
      21    -1     0     0   505   501  0.000000000E+00  0.000000000E+00  5.921375108E+01  5.921375108E+01  3.746263015E-07  0.00000E+00  9.000E+00
      21    -1     0     0   503   504  0.000000000E+00  0.000000000E+00 -2.033141302E+01  2.033141302E+01  8.294770329E-08  0.00000E+00  9.000E+00
      21     1     1     2   502   501  6.288907263E+00  2.710124224E+00  7.876701047E-02  6.848454725E+00  1.721129584E-07  0.00000E+00  9.000E+00
      21     1     1     2   505   504 -2.006749570E+01  1.163758614E+01  4.518535223E+01  5.079226173E+01  4.884209879E-07  0.00000E+00  9.000E+00
      21     1     1     2   503   512  1.096027683E+01 -6.838326325E+00 -4.335603196E+00  1.362673219E+01  4.001155747E-07  0.00000E+00  9.000E+00
      21     1     1     2   512   502  2.818311608E+00 -7.509384038E+00 -2.046177991E+00  8.277715465E+00  2.923351312E-07  0.00000E+00  9.000E+00
#rwgt            1         276  -832445366.61698771                1       70199           0
</event>
<event>
      6  10001  4.10630E+08  1.09183E+01 -1.00000E+00  1.91443E-01
       2    -1     0     0   501     0  0.000000000E+00  0.000000000E+00  6.947133478E+01  6.947133478E+01  5.805433083E-07  0.00000E+00  9.000E+00
      21    -1     0     0   503   502  0.000000000E+00  0.000000000E+00 -3.696290491E+02  3.696290491E+02  2.831193584E-06  0.00000E+00  9.000E+00
       2     1     1     2   504     0  7.774713161E+00  3.093117200E+01  6.258977059E+01  7.024793128E+01  3.300000000E-01  0.00000E+00  9.000E+00
      21     1     1     2   503   504 -5.796652234E+00 -1.305185192E+01 -1.904799558E+01  2.380710296E+01  2.976792324E-07  0.00000E+00  9.000E+00
      21     1     1     2   501   511 -1.047777045E+01 -1.317403800E+01 -2.890008200E+02  2.894906094E+02  7.087811744E-06  0.00000E+00  9.000E+00
      21     1     1     2   511   502  8.499709519E+00 -4.705282082E+00 -5.469866937E+01  5.555474032E+01  1.559565612E-06  0.00000E+00  9.000E+00
#rwgt            1          84   98985.689996847694                1       71261           0
</event>
<event>
      6  10001  1.30514E+08  1.18812E+01 -1.00000E+00  1.87479E-01
      -1    -1     0     0     0   503  0.000000000E+00  0.000000000E+00  9.909843960E+01  9.909843960E+01  3.039895217E-07  0.00000E+00  9.000E+00
       2    -1     0     0   512     0  0.000000000E+00  0.000000000E+00 -1.672145559E+03  1.672145559E+03  1.356103823E-05  0.00000E+00  9.000E+00
      -1     1     1     2     0   502 -3.077439314E+01 -3.571995772E+01  8.987758594E+01  1.014941772E+02  3.300000000E-01  0.00000E+00  9.000E+00
       2     1     1     2   501     0 -2.756033046E-01  8.695486115E+00 -1.488624157E+03  1.488649615E+03  3.300000000E-01  0.00000E+00  9.000E+00
      21     1     1     2   502   501  1.929789549E+01  2.527755439E+01 -8.056330065E+01  8.661298366E+01  9.697037988E-07  0.00000E+00  9.000E+00
      21     1     1     2   512   503  1.175210095E+01  1.746917213E+00 -9.373724797E+01  9.448722270E+01  1.345687285E-06  0.00000E+00  9.000E+00
#rwgt            1           9   26808.976721592273                1       74179           0
</event>
<event>
      6  10001 -1.20402E+08  3.51072E+01 -1.00000E+00  1.48442E-01
      21    -1     0     0   505   501  0.000000000E+00  0.000000000E+00  5.464943313E+02  5.464943313E+02  3.620805210E-06  0.00000E+00  9.000E+00
      21    -1     0     0   502   503  0.000000000E+00  0.000000000E+00 -1.948780731E+01  1.948780731E+01  1.126841110E-07  0.00000E+00  9.000E+00
      21     1     1     2   504   503 -1.277251876E+01 -3.888652728E+01  3.692927275E+02  3.715540578E+02  1.240879743E-06  0.00000E+00  9.000E+00
      21     1     1     2   505   504  4.429309791E+00 -1.816317434E+00  1.488278036E+02  1.489047781E+02  1.023348576E-06  0.00000E+00  9.000E+00
      21     1     1     2   511   501  7.167520560E+00  8.766791308E+00  7.407401229E+00  1.353142911E+01  7.288148961E-07  0.00000E+00  9.000E+00
      21     1     1     2   502   511  1.175688407E+00  3.193605341E+01  1.478591638E+00  3.199187372E+01  3.242572287E-06  0.00000E+00  9.000E+00
#rwgt            1         276  -15880.068996141012                1       76518           0
</event>
<event>
      6  10001  5.69200E+07  2.34652E+01 -1.00000E+00  1.60837E-01
      21    -1     0     0   504   503  0.000000000E+00  0.000000000E+00  1.708773783E+01  1.708773783E+01  9.270226720E-08  0.00000E+00  9.000E+00
       1    -1     0     0   501     0  0.000000000E+00  0.000000000E+00 -1.648344340E+02  1.648344340E+02  1.191713831E-06  0.00000E+00  9.000E+00
       1     1     1     2   512     0 -1.006386638E+01  3.572861350E+00 -3.416696143E+01  3.579856000E+01  3.300000000E-01  0.00000E+00  9.000E+00
      21     1     1     2   502   503 -9.403690421E+00 -2.468341636E+01 -3.525812705E+01  4.405491982E+01  7.062559284E-07  0.00000E+00  9.000E+00
      21     1     1     2   501   502  4.011228098E+01  1.447261638E+01 -6.039675641E+01  7.393388868E+01  2.841293076E-07  0.00000E+00  9.000E+00
      21     1     1     2   504   512 -2.064472418E+01  6.637938635E+00 -1.792485131E+01  2.813480336E+01  6.467080230E-07  0.00000E+00  9.000E+00
#rwgt            1         222   15595.783669201870                1       85362           0
</event>
<event>
      6  10001  1.29057E+05  2.97624E+01 -1.00000E+00  1.53277E-01
      21    -1     0     0   503   502  0.000000000E+00  0.000000000E+00  4.453538333E+02  4.453538333E+02  9.844540702E-07  0.00000E+00  9.000E+00
       1    -1     0     0   501     0  0.000000000E+00  0.000000000E+00 -2.375356349E+02  2.375356349E+02  1.899331100E-06  0.00000E+00  9.000E+00
       1     1     1     2   504     0  2.614164377E+02 -5.561691443E+01 -2.997906916E+01  2.689435788E+02  3.300000000E-01  0.00000E+00  9.000E+00
      21     1     1     2   503   504 -2.817758023E+02  7.489299792E+01  2.159295079E+02  3.628114060E+02  2.615211609E-06  0.00000E+00  9.000E+00
      21     1     1     2   501   511  1.984851233E+01 -5.721740846E+00  2.915946521E+01  3.573480337E+01  3.719078986E-07  0.00000E+00  9.000E+00
      21     1     1     2   511   502  5.108522721E-01 -1.355434264E+01 -7.291705538E+00  1.539968000E+01  3.166464580E-07  0.00000E+00  9.000E+00
#rwgt            1         222   37732.108004863148                1       85711           0
</event>
<event>
      6  10001  5.69392E+12  4.72476E+00 -1.00000E+00  2.47510E-01
      -1    -1     0     0     0   501  0.000000000E+00  0.000000000E+00  3.914598879E+02  3.914598879E+02  3.404143379E-06  0.00000E+00  9.000E+00
      21    -1     0     0   503   504  0.000000000E+00  0.000000000E+00 -3.043480365E+01  3.043480365E+01  1.469948250E-07  0.00000E+00  9.000E+00
      -1     1     1     2     0   504  1.212790784E+00  1.916567587E+00  3.268908959E+02  3.268989306E+02  3.300000000E-01  0.00000E+00  9.000E+00
      21     1     1     2   503   502  9.128216299E-01 -8.650836195E-01 -3.038244122E+01  3.040845848E+01  1.511351661E-06  0.00000E+00  9.000E+00
      21     1     1     2   502   512 -7.993161350E-01 -4.966597186E-01  8.449320913E+00  8.501564624E+00  8.814633718E-08  0.00000E+00  9.000E+00
      21     1     1     2   512   501 -1.326296279E+00 -5.548242484E-01  5.606730861E+01  5.608573782E+01  5.281582176E-07  0.00000E+00  9.000E+00
#rwgt            1          21   10035.331395287094                1       88086           0
</event>
<event>
      6  10001  3.89189E+05  1.25411E+02 -1.00000E+00  1.19559E-01
      21    -1     0     0   505   501  0.000000000E+00  0.000000000E+00  9.641600091E+02  9.641600091E+02  2.793368222E-06  0.00000E+00  9.000E+00
      21    -1     0     0   502   503  0.000000000E+00  0.000000000E+00 -4.632347427E+01  4.632347427E+01  2.217960528E-07  0.00000E+00  9.000E+00
      21     1     1     2   505   504 -7.941775689E+01  4.644971258E+01  2.020475689E+02  2.220089548E+02  2.455533929E-06  0.00000E+00  9.000E+00
      21     1     1     2   502   501  3.019829567E+01 -1.587797947E+02  4.461559476E+02  4.745293351E+02  6.174840979E-06  0.00000E+00  9.000E+00
      21     1     1     2   504   511  6.338632107E+01  1.881219078E+01  1.165598290E+02  1.340071564E+02  3.535299024E-06  0.00000E+00  9.000E+00
      21     1     1     2   511   503 -1.416685984E+01  9.351789135E+01  1.530731894E+02  1.799380372E+02  4.876309485E-06  0.00000E+00  9.000E+00
#rwgt            1         276   11630.077469976173                1       95613           0
</event>
<event>
      6  10001 -1.47470E+07  1.08249E+01 -1.00000E+00  1.91856E-01
       1    -1     0     0   502     0  0.000000000E+00  0.000000000E+00  8.778405783E+02  8.778405783E+02  5.800402839E-06  0.00000E+00  9.000E+00
       2    -1     0     0   501     0  0.000000000E+00  0.000000000E+00 -7.657942293E+02  7.657942293E+02  5.588885585E-06  0.00000E+00  9.000E+00
       1     1     1     2   501     0 -1.855482906E+00  7.186197564E+01  8.700748091E+02  8.730394428E+02  3.300000000E-01  0.00000E+00  9.000E+00
       2     1     1     2   512     0  1.308535061E+01 -6.134755420E+01 -6.394116943E+02  6.424812624E+02  3.300000000E-01  0.00000E+00  9.000E+00
      21     1     1     2   502   503 -1.234030251E+01 -1.805854810E+01 -1.184856901E+02  1.204875636E+02  2.187647535E-06  0.00000E+00  9.000E+00
      21     1     1     2   503   512  1.110434807E+00  7.544126657E+00 -1.310756874E-01  7.626538751E+00  7.380101008E-08  0.00000E+00  9.000E+00
#rwgt            1          30  -159319.25352295037                1       99222           0
</event>
<event>
      6  10001  6.43526E+07  1.50908E+01 -1.00000E+00  1.77133E-01
       2    -1     0     0   501     0  0.000000000E+00  0.000000000E+00  4.918347482E+02  4.918347482E+02  3.224174568E-06  0.00000E+00  9.000E+00
      21    -1     0     0   503   502  0.000000000E+00  0.000000000E+00 -3.730979349E+02  3.730979349E+02  2.826057880E-06  0.00000E+00  9.000E+00
       2     1     1     2   511     0  2.074846589E+01 -2.811519735E+01  4.452401369E+02  4.466092829E+02  3.300000000E-01  0.00000E+00  9.000E+00
      21     1     1     2   503   504 -1.968570982E+01  2.624937502E+01 -3.647912721E+02  3.662638790E+02  1.201730170E-05  0.00000E+00  9.000E+00
      21     1     1     2   501   502 -1.111992649E+01  1.459267853E+01  1.510217830E+01  2.376288748E+01  4.010608940E-07  0.00000E+00  9.000E+00
      21     1     1     2   504   511  1.005717042E+01 -1.272685620E+01  2.318577016E+01  2.829663379E+01  1.172139362E-06  0.00000E+00  9.000E+00
#rwgt            1          84   12870.185835203994                1      105569           0
</event>
<event>
      6  10001  1.72632E+07  7.99928E+00 -1.00000E+00  2.07671E-01
      21    -1     0     0   505   501  0.000000000E+00  0.000000000E+00  7.932106937E+00  7.932106937E+00  5.838816273E-08  0.00000E+00  9.000E+00
      21    -1     0     0   504   505  0.000000000E+00  0.000000000E+00 -9.405436337E+02  9.405436337E+02  2.219722365E-06  0.00000E+00  9.000E+00
      21     1     1     2   502   501  5.778034686E+01 -2.761266467E+01 -1.901977766E+02  2.006893668E+02  8.374257629E-07  0.00000E+00  9.000E+00
      21     1     1     2   503   502  5.131206287E+00  1.255042250E+01 -4.195653403E+01  4.409300546E+01  7.837014585E-07  0.00000E+00  9.000E+00
      21     1     1     2   512   503 -5.817422827E+01  8.584451151E+00 -5.814885577E+02  5.844543407E+02  9.328691337E-06  0.00000E+00  9.000E+00
      21     1     1     2   504   512 -4.737324871E+00  6.477791015E+00 -1.189686584E+02  1.192390276E+02  2.113188021E-06  0.00000E+00  9.000E+00
#rwgt            1         276   1564411.0319785124                1      110798           0
</event>
<event>
      6  10001  2.89395E+07  1.94439E+01 -1.00000E+00  1.67383E-01
      21    -1     0     0   505   501  0.000000000E+00  0.000000000E+00  5.527088245E+01  5.527088245E+01  4.499609845E-07  0.00000E+00  9.000E+00
      21    -1     0     0   502   503  0.000000000E+00  0.000000000E+00 -9.220405727E+01  9.220405727E+01  6.584194736E-07  0.00000E+00  9.000E+00
      21     1     1     2   505   504  4.725163278E+00  5.323656133E+01  1.207690243E+01  5.479334086E+01  9.791149268E-07  0.00000E+00  9.000E+00
      21     1     1     2   504   503  1.134721457E+01 -5.017630039E+01 -4.894216225E+01  7.100532124E+01  1.268219760E-06  0.00000E+00  9.000E+00
      21     1     1     2   502   511 -4.159751188E+00  5.207121588E+00  2.159615449E+00  7.005825010E+00  1.628080466E-07  0.00000E+00  9.000E+00
      21     1     1     2   511   501 -1.191262666E+01 -8.267382524E+00 -2.227530449E+00  1.467045260E+01  4.796576571E-07  0.00000E+00  9.000E+00
#rwgt            1         276   716302.22381592484                1      116315           0
</event>
<event>
      6  10001  4.45391E+08  1.40882E+01 -1.00000E+00  1.79985E-01
      21    -1     0     0   503   504  0.000000000E+00  0.000000000E+00  1.225938020E+02  1.225938020E+02  8.157269623E-07  0.00000E+00  9.000E+00
      -2    -1     0     0     0   512  0.000000000E+00  0.000000000E+00 -1.465520853E+02  1.465520853E+02  7.568333164E-07  0.00000E+00  9.000E+00
      -2     1     1     2     0   504 -1.990712943E+01 -2.423944714E+00 -6.443033828E+01  6.747997260E+01  3.300000000E-01  0.00000E+00  9.000E+00
      21     1     1     2   502   501 -1.234210755E+00 -2.323015122E+01  8.673662677E+00  2.482731613E+01  5.207029398E-07  0.00000E+00  9.000E+00
      21     1     1     2   503   502  1.152997988E+01  1.535366192E+01  1.027363459E+02  1.045152244E+02  1.973315377E-06  0.00000E+00  9.000E+00
      21     1     1     2   501   512  9.611360314E+00  1.030043401E+01 -7.093795362E+01  7.232337417E+01  7.914064926E-07  0.00000E+00  9.000E+00
#rwgt            1         228   560.10813141233655                1      117572           0
</event>
<event>
      6  10001 -3.14705E+09  2.61567E+01 -1.00000E+00  1.57291E-01
      -1    -1     0     0     0   503  0.000000000E+00  0.000000000E+00  1.415298474E+01  1.415298474E+01  9.741537680E-08  0.00000E+00  9.000E+00
      -1    -1     0     0     0   501  0.000000000E+00  0.000000000E+00 -8.189154567E+02  8.189154567E+02  6.290202598E-06  0.00000E+00  9.000E+00
      -1     1     1     2     0   502  8.253076733E-01 -1.439256210E+01  7.025027719E+00  1.604016493E+01  3.300000000E-01  0.00000E+00  9.000E+00
      21     1     1     2   511   503 -8.578937028E-01  1.859101722E+00 -3.698989518E+01  3.704651922E+01  2.216234246E-07  0.00000E+00  9.000E+00
      21     1     1     2   502   501  3.701601431E+00 -3.876491930E+00 -3.712382096E-01  5.372788908E+00  2.765843000E-07  0.00000E+00  9.000E+00
      -1     1     1     2     0   511 -3.669015402E+00  1.640995230E+01 -7.744263663E+02  7.746089684E+02  3.300000000E-01  0.00000E+00  9.000E+00
#rwgt            1           1  -3969.7658421366532                1      119016           0
</event>
<event>
      6  10001  7.11775E+07  1.26438E+01 -1.00000E+00  1.84669E-01
      21    -1     0     0   505   501  0.000000000E+00  0.000000000E+00  2.063416955E+02  2.063416955E+02  1.624242864E-06  0.00000E+00  9.000E+00
      21    -1     0     0   502   503  0.000000000E+00  0.000000000E+00 -6.259308110E+01  6.259308110E+01  3.505084757E-07  0.00000E+00  9.000E+00
      21     1     1     2   502   501  2.336075311E+00 -4.865844424E+01  1.640330616E+02  1.711138415E+02  4.263065723E-06  0.00000E+00  9.000E+00
      21     1     1     2   504   503 -8.600238505E+00  3.206003650E+01 -5.156399473E+01  6.132418442E+01  1.201917319E-06  0.00000E+00  9.000E+00
      21     1     1     2   512   504  8.376265599E-01  1.368420660E+00  7.963780242E+00  8.123791547E+00  8.378383307E-08  0.00000E+00  9.000E+00
      21     1     1     2   505   512  5.426536635E+00  1.522998708E+01  2.331576723E+01  2.837295909E+01  6.791753876E-07  0.00000E+00  9.000E+00
#rwgt            1         276   13089.100420546249                1      125440           0
</event>
<event>
      6  10001  1.09332E+07  3.06214E+01 -1.00000E+00  1.52421E-01
       2    -1     0     0   501     0  0.000000000E+00  0.000000000E+00  9.752795116E+02  9.752795116E+02  6.541447655E-06  0.00000E+00  9.000E+00
      21    -1     0     0   503   502  0.000000000E+00  0.000000000E+00 -2.505466513E+01  2.505466513E+01  1.104596461E-07  0.00000E+00  9.000E+00
       2     1     1     2   504     0 -1.324467843E+01 -4.043989849E+01  7.504048752E+02  7.516105325E+02  3.300000000E-01  0.00000E+00  9.000E+00
      21     1     1     2   501   502  2.378188948E+01 -2.373125870E+01  3.213378987E-01  3.359842504E+01  9.885449234E-07  0.00000E+00  9.000E+00
      21     1     1     2   503   511  1.139284868E+01  5.421738894E+01  1.224378292E+02  1.343887803E+02  3.862622985E-06  0.00000E+00  9.000E+00
      21     1     1     2   511   504 -2.193005973E+01  9.953768253E+00  7.706080413E+01  8.073643883E+01  1.398258917E-06  0.00000E+00  9.000E+00
#rwgt            1          84   251.62994673195428                1      126517           0
</event>
<event>
      6  10001  1.38955E+07  2.00690E+01 -1.00000E+00  1.66243E-01
      21    -1     0     0   505   501  0.000000000E+00  0.000000000E+00  2.945961434E+01  2.945961434E+01  1.296057597E-07  0.00000E+00  9.000E+00
      21    -1     0     0   501   502  0.000000000E+00  0.000000000E+00 -7.465883738E+02  7.465883738E+02  5.743783897E-06  0.00000E+00  9.000E+00
      21     1     1     2   505   504  3.558848025E+01 -5.638523777E+01 -4.441712688E+01  8.011689039E+01  1.648766650E-06  0.00000E+00  9.000E+00
      21     1     1     2   503   502 -2.728887301E+01  5.349820129E-01 -6.053233931E+02  6.059384284E+02  5.216098940E-06  0.00000E+00  9.000E+00
      -5     1     1     2     0   503  3.097506476E+00  2.007358601E+01 -1.669957184E+01  2.672936777E+01  4.800000000E+00  0.00000E+00  9.000E+00
       5     1     1     2   504     0 -1.139711372E+01  3.577666975E+01 -5.068866775E+01  6.326330166E+01  4.800000000E+00  0.00000E+00  9.000E+00
#rwgt            1         276   46531.396020965600                1      128597           0
</event>
<event>
      6  10001  1.51222E+07  2.30472E+02 -1.00000E+00  1.09450E-01
      21    -1     0     0   501   502  0.000000000E+00  0.000000000E+00  5.660840427E+02  5.660840427E+02  1.035815338E-06  0.00000E+00  9.000E+00
       3    -1     0     0   503     0  0.000000000E+00  0.000000000E+00 -6.993300363E+01  6.993300363E+01  5.398450372E-07  0.00000E+00  9.000E+00
       4     1     1     2   503     0  3.128733573E+00 -6.384109333E+01  1.819839999E+02  1.928883107E+02  1.500000000E+00  0.00000E+00  9.000E+00
      -4     1     1     2     0   511  1.621973118E+01 -1.638777665E+01  1.144138618E+01  2.578360372E+01  1.500000000E+00  0.00000E+00  9.000E+00
       3     1     1     2   501     0  1.347549371E+01  6.128401780E+01 -3.876470047E+01  7.375819799E+01  5.000000000E-01  0.00000E+00  9.000E+00
      21     1     1     2   511   502 -3.282395846E+01  1.894485218E+01  3.414903535E+02  3.435869339E+02  1.229384281E-05  0.00000E+00  9.000E+00
#rwgt            1         255   804.65614885067066                1      130223           0
</event>
<event>
      6  10001 -3.16143E+09  1.04892E+01 -1.00000E+00  1.93385E-01
       2    -1     0     0   501     0  0.000000000E+00  0.000000000E+00  3.799521397E+02  3.799521397E+02  3.739375654E-06  0.00000E+00  9.000E+00
      21    -1     0     0   504   503  0.000000000E+00  0.000000000E+00 -2.903121362E+01  2.903121362E+01  1.992765930E-07  0.00000E+00  9.000E+00
       2     1     1     2   504     0 -2.947262230E+00 -1.514309006E+01  3.707689843E+02  3.710899462E+02  3.300000000E-01  0.00000E+00  9.000E+00
      21     1     1     2   501   502 -2.384686143E-01 -3.868293898E+00  5.058050486E+00  6.372161304E+00  9.230399674E-08  0.00000E+00  9.000E+00
      21     1     1     2   502   512  2.696692228E-02  1.321206879E-01 -4.200587945E-01  4.411717148E-01  3.469093075E-08  0.00000E+00  9.000E+00
      21     1     1     2   512   503  3.158763922E+00  1.887926327E+01 -2.448604988E+01  3.108007416E+01  1.938728774E-06  0.00000E+00  9.000E+00
#rwgt            1          84  -17492.617076588584                1      130702           0
</event>
<event>
      6  10001 -3.73362E+09  5.93277E+00 -1.00000E+00  2.26228E-01
      21    -1     0     0   505   501  0.000000000E+00  0.000000000E+00  3.759256774E+02  3.759256774E+02  2.896245387E-06  0.00000E+00  9.000E+00
      21    -1     0     0   503   504  0.000000000E+00  0.000000000E+00 -3.629363523E+01  3.629363523E+01  3.282403561E-07  0.00000E+00  9.000E+00
      21     1     1     2   503   502  6.268296941E+00  1.131019395E+01 -3.468262192E+01  3.701481186E+01  1.925407830E-06  0.00000E+00  9.000E+00
      21     1     1     2   502   501  3.757507386E+00  4.122002661E+00  8.200184870E+01  8.219131924E+01  7.095077547E-07  0.00000E+00  9.000E+00
      21     1     1     2   505   511 -1.058031905E+01 -9.445613006E+00  1.954216636E+02  1.959356766E+02  6.782654473E-06  0.00000E+00  9.000E+00
      21     1     1     2   511   504  5.545147256E-01 -5.986583603E+00  9.689115182E+01  9.707750496E+01  3.231402519E-06  0.00000E+00  9.000E+00
#rwgt            1         276  -783976.33388857311                1      134718           0
</event>
<event>
      6  10001  2.24577E+05  3.28209E+01 -1.00000E+00  1.50375E-01
      21    -1     0     0   512   503  0.000000000E+00  0.000000000E+00  1.598821969E+03  1.598821969E+03  1.246080326E-05  0.00000E+00  9.000E+00
       3    -1     0     0   501     0  0.000000000E+00  0.000000000E+00 -1.716296380E+02  1.716296380E+02  1.143403945E-06  0.00000E+00  9.000E+00
       3     1     1     2   504     0 -1.004372579E+02 -2.368027645E+02 -1.130032610E+01  2.574706574E+02  5.000000000E-01  0.00000E+00  9.000E+00
      21     1     1     2   501   502  4.423170680E+01  1.167156868E+02  8.674926175E+01  1.520014140E+02  8.439635603E-06  0.00000E+00  9.000E+00
      21     1     1     2   502   503  6.518847999E+01  8.851937368E+01  7.160723604E+02  7.244617608E+02  1.538129165E-05  0.00000E+00  9.000E+00
      21     1     1     2   512   504 -8.982928879E+00  3.156770402E+01  6.356710348E+02  6.365177746E+02  1.188031006E-05  0.00000E+00  9.000E+00
#rwgt            1         258   3591.4382656453586                1      137807           0
</event>
<event>
      6  10001  2.13709E+10  3.81635E+00 -1.00000E+00  2.68366E-01
      21    -1     0     0   505   511  0.000000000E+00  0.000000000E+00  6.691581016E+01  6.691581016E+01  6.578264108E-07  0.00000E+00  9.000E+00
      21    -1     0     0   502   503  0.000000000E+00  0.000000000E+00 -1.088034164E+01  1.088034164E+01  5.536909324E-08  0.00000E+00  9.000E+00
      21     1     1     2   502   501 -3.054146338E+00 -8.093421972E+00  2.534014361E+01  2.677599983E+01  3.283044986E-07  0.00000E+00  9.000E+00
      21     1     1     2   505   504 -6.855639541E+00  4.102847133E+00  1.533922695E+01  1.729523146E+01  1.171311752E-07  0.00000E+00  9.000E+00
      21     1     1     2   504   503  6.495632298E+00  2.285260003E+00 -7.714583932E+00  1.034071842E+01  2.513004654E-07  0.00000E+00  9.000E+00
      21     1     1     2   501   511  3.414153581E+00  1.705314836E+00  2.307068190E+01  2.338420207E+01  4.232505939E-07  0.00000E+00  9.000E+00
#rwgt            1         276   120094.62651334370                1      139993           0
</event>
<event>
      6  10001  2.16200E+05  1.78473E+02 -1.00000E+00  1.13477E-01
      21    -1     0     0   505   501  0.000000000E+00  0.000000000E+00  5.095594834E+02  5.095594834E+02  2.479336422E-06  0.00000E+00  9.000E+00
      21    -1     0     0   502   503  0.000000000E+00  0.000000000E+00 -1.731977831E+02  1.731977831E+02  3.661384048E-07  0.00000E+00  9.000E+00
      21     1     1     2   505   504 -3.032680416E+01 -1.032412311E+02  1.602789554E+02  1.930487255E+02  9.693982454E-07  0.00000E+00  9.000E+00
      21     1     1     2   502   501  1.010706749E+02  1.988904492E+02  1.652522480E+02  2.776346476E+02  4.007503933E-06  0.00000E+00  9.000E+00
      21     1     1     2   512   503  3.498958493E+01 -3.695086824E+01 -5.454719702E+01  7.459915830E+01  1.833090553E-06  0.00000E+00  9.000E+00
      21     1     1     2   504   512 -1.057334557E+02 -5.869834977E+01  6.537769391E+01  1.374747351E+02  3.573599625E-06  0.00000E+00  9.000E+00
#rwgt            1         276   56424.354636038719                1      142479           0
</event>
<event>
      6  10001  2.00298E+08  1.07728E+01 -1.00000E+00  1.92088E-01
      21    -1     0     0   505   501  0.000000000E+00  0.000000000E+00  1.892763409E+02  1.892763409E+02  1.591236328E-06  0.00000E+00  9.000E+00
      21    -1     0     0   503   504  0.000000000E+00  0.000000000E+00 -1.425201956E+01  1.425201956E+01  3.462843343E-08  0.00000E+00  9.000E+00
      21     1     1     2   503   502  3.307965007E+00 -3.289986223E+00 -6.287502252E+00  7.829388635E+00  3.863113314E-07  0.00000E+00  9.000E+00
      21     1     1     2   505   504 -2.914765947E+01 -1.401175741E+01  9.767428643E+01  1.028891716E+02  3.811643499E-06  0.00000E+00  9.000E+00
      21     1     1     2   502   511  2.804289139E+01  2.033255333E+01  6.356085313E+01  7.238645269E+01  9.245135203E-07  0.00000E+00  9.000E+00
      21     1     1     2   511   501 -2.203196927E+00 -3.030809690E+00  2.007668398E+01  2.042334752E+01  1.855381594E-07  0.00000E+00  9.000E+00
#rwgt            1         276   111432.45007504869                1      142689           0
</event>
<event>
      6  10001  1.50386E+08  5.84378E+00 -1.00000E+00  2.27260E-01
      -2    -1     0     0     0   501  0.000000000E+00  0.000000000E+00  8.027209665E+00  8.027209665E+00  8.111028879E-08  0.00000E+00  9.000E+00
       2    -1     0     0   504     0  0.000000000E+00  0.000000000E+00 -2.321073050E+02  2.321073050E+02  9.739957515E-07  0.00000E+00  9.000E+00
      21     1     1     2   502   501  3.026051502E+01 -1.704200220E+01 -9.042724456E+01  9.686699730E+01  9.804424661E-07  0.00000E+00  9.000E+00
      21     1     1     2   503   502  5.726520600E+00  9.954352644E+00 -5.843498981E+01  5.955275148E+01  6.301432773E-07  0.00000E+00  9.000E+00
      21     1     1     2   504   512 -4.801343963E+00  1.015801807E+00 -1.192201771E+01  1.289260499E+01  1.517155848E-07  0.00000E+00  9.000E+00
      21     1     1     2   512   503 -3.118569166E+01  6.071847753E+00 -6.329584324E+01  7.082216088E+01  6.697499538E-07  0.00000E+00  9.000E+00
#rwgt            1          51   27695.860024833757                1      144095           0
</event>
<event>
      6  10001  1.06115E+07  3.81518E+01 -1.00000E+00  1.46123E-01
      21    -1     0     0   505   501  0.000000000E+00  0.000000000E+00  2.665534452E+01  2.665534452E+01  2.278898111E-07  0.00000E+00  9.000E+00
      21    -1     0     0   502   503  0.000000000E+00  0.000000000E+00 -5.822536840E+02  5.822536840E+02  3.971496439E-06  0.00000E+00  9.000E+00
      21     1     1     2   502   501 -3.112050078E+00 -6.727106696E+01 -4.448506868E+02  4.499191203E+02  4.907261106E-06  0.00000E+00  9.000E+00
      21     1     1     2   505   504  4.544286820E+00  7.028633601E+01 -4.113579056E+01  8.156575775E+01  1.856886037E-06  0.00000E+00  9.000E+00
      21     1     1     2   511   503  6.548476518E+00  1.030380205E+01 -5.415892420E+01  5.551792460E+01  1.856712588E-07  0.00000E+00  9.000E+00
      21     1     1     2   504   511 -7.980713261E+00 -1.331907110E+01 -1.545293790E+01  2.190622580E+01  8.908727151E-07  0.00000E+00  9.000E+00
#rwgt            1         276   3448119.0540208132                1      146428           0
</event>
<event>
      6  10001  1.79901E+08  1.00680E+02 -1.00000E+00  1.23694E-01
      -1    -1     0     0     0   501  0.000000000E+00  0.000000000E+00  2.988997016E+02  2.988997016E+02  1.417417606E-06  0.00000E+00  9.000E+00
      21    -1     0     0   503   504  0.000000000E+00  0.000000000E+00 -3.236375377E+01  3.236375377E+01  2.387238651E-07  0.00000E+00  9.000E+00
      21     1     1     2   512   504  1.188953789E+01 -1.135206422E+00  1.125169906E+01  1.640885543E+01  5.922251434E-07  0.00000E+00  9.000E+00
      21     1     1     2   502   501 -1.201803484E+01 -1.860173054E+01  7.131231744E+01  7.467197707E+01  1.480527680E-06  0.00000E+00  9.000E+00
      21     1     1     2   503   502 -1.800369969E+01  7.075062258E+00 -2.411992173E+01  3.091860819E+01  2.196843603E-06  0.00000E+00  9.000E+00
      -1     1     1     2     0   512  1.813219664E+01  1.266187470E+01  2.080918531E+02  2.092640147E+02  3.300000000E-01  0.00000E+00  9.000E+00
#rwgt            1          21   1483900.2424531276                1      148293           0
</event>
<event>
      6  10001  2.65710E+08  1.23326E+01 -1.00000E+00  1.85784E-01
      21    -1     0     0   505   501  0.000000000E+00  0.000000000E+00  6.502656860E+01  6.502656860E+01  3.101310232E-07  0.00000E+00  9.000E+00
      21    -1     0     0   502   503  0.000000000E+00  0.000000000E+00 -2.043077873E+01  2.043077873E+01  8.230086419E-08  0.00000E+00  9.000E+00
      21     1     1     2   504   503  1.771747523E+01 -2.345520333E+01  2.410552157E+01  3.801488737E+01  8.220661814E-07  0.00000E+00  9.000E+00
      21     1     1     2   505   504 -8.277105702E+00  2.951422669E+01  1.211342838E+01  3.295959956E+01  9.867970830E-07  0.00000E+00  9.000E+00
      21     1     1     2   502   511 -2.449793607E-01 -5.313347465E-01 -3.244162452E-01  6.690122570E-01  3.007903754E-08  0.00000E+00  9.000E+00
      21     1     1     2   511   501 -9.195390166E+00 -5.527688612E+00  8.701256159E+00  1.381384814E+01  2.959240411E-07  0.00000E+00  9.000E+00
#rwgt            1         276   56385.186585509575                1      148684           0
</event>
<event>
      6  10001  7.60626E+05  3.81071E+01 -1.00000E+00  1.46156E-01
      21    -1     0     0   501   502  0.000000000E+00  0.000000000E+00  5.869089253E+02  5.869089253E+02  3.395919034E-06  0.00000E+00  9.000E+00
      21    -1     0     0   503   504  0.000000000E+00  0.000000000E+00 -3.228320788E+02  3.228320788E+02  2.465185252E-06  0.00000E+00  9.000E+00
       2     1     1     2   512     0  3.533831010E+01  3.226057003E+01  1.491888479E+02  1.566747005E+02  3.300000000E-01  0.00000E+00  9.000E+00
      -2     1     1     2     0   504  2.476045231E+01  4.304444744E+00  8.650499090E+00  2.658097586E+01  3.300000000E-01  0.00000E+00  9.000E+00
      21     1     1     2   503   502 -1.455254689E+02 -8.154352382E+01 -2.813332303E+02  3.270709325E+02  4.287531353E-07  0.00000E+00  9.000E+00
      21     1     1     2   501   512  8.542670652E+01  4.497850905E+01  3.875707299E+02  3.994143953E+02  1.094113487E-05  0.00000E+00  9.000E+00
#rwgt            1         272   3699.3177781666263                1      153719           0
</event>
<event>
      6  10001  7.18262E+06  1.88380E+01 -1.00000E+00  1.68540E-01
      21    -1     0     0   505   501  0.000000000E+00  0.000000000E+00  3.695792092E+01  3.695792092E+01  1.159756415E-07  0.00000E+00  9.000E+00
      21    -1     0     0   504   505  0.000000000E+00  0.000000000E+00 -2.446430536E+02  2.446430536E+02  1.790857506E-06  0.00000E+00  9.000E+00
      21     1     1     2   504   503  5.672646604E+01  5.475272702E+01 -1.336232065E+02  1.551480402E+02  1.465249640E-06  0.00000E+00  9.000E+00
      21     1     1     2   503   502 -4.044575143E+01 -6.665768873E+01 -5.583941198E+01  9.590175288E+01  7.574711648E-07  0.00000E+00  9.000E+00
      21     1     1     2   511   501 -8.823882930E+00 -2.866240124E-01 -1.216070490E+01  1.502750169E+01  2.808409007E-07  0.00000E+00  9.000E+00
      21     1     1     2   502   511 -7.456831677E+00  1.219158572E+01 -6.061809305E+00  1.552367975E+01  3.229676349E-07  0.00000E+00  9.000E+00
#rwgt            1         276   97052.445711767257                1      154615           0
</event>
<event>
      6  10001  1.22106E+09  4.30736E+00 -1.00000E+00  2.56110E-01
      21    -1     0     0   502   503  0.000000000E+00  0.000000000E+00  1.251929164E+01  1.251929164E+01  8.944665114E-08  0.00000E+00  9.000E+00
      21    -1     0     0   501   502  0.000000000E+00  0.000000000E+00 -5.046953556E+01  5.046953556E+01  4.584513505E-07  0.00000E+00  9.000E+00
       4     1     1     2   512     0  1.692774105E+00 -9.556515991E+00 -8.405561462E+00  1.292655969E+01  1.500000000E+00  0.00000E+00  9.000E+00
      -4     1     1     2     0   504 -1.827827161E+01  8.091866472E+00 -9.980456231E+00  2.239270021E+01  1.500000000E+00  0.00000E+00  9.000E+00
      21     1     1     2   504   503  1.417732831E+01  4.139031640E+00 -1.111037776E+01  1.848157772E+01  3.560013684E-07  0.00000E+00  9.000E+00
      21     1     1     2   501   512  2.408169191E+00 -2.674382121E+00 -8.453848462E+00  9.187989573E+00  1.157945467E-07  0.00000E+00  9.000E+00
#rwgt            1         273   5800.2720167744237                1      161980           0
</event>
<event>
      6  10001 -1.89026E+07  9.57431E+00 -1.00000E+00  1.97962E-01
       2    -1     0     0   501     0  0.000000000E+00  0.000000000E+00  5.186443640E+02  5.186443640E+02  4.575903427E-06  0.00000E+00  9.000E+00
      21    -1     0     0   504   503  0.000000000E+00  0.000000000E+00 -3.248104140E+02  3.248104140E+02  2.553188574E-06  0.00000E+00  9.000E+00
      21     1     1     2   504   511 -2.024372745E+01  2.439352879E+01  2.780948929E+02  2.798957345E+02  7.850190582E-06  0.00000E+00  9.000E+00
      21     1     1     2   502   503  8.957569875E+00  1.964320317E+00 -3.869457378E+01  3.976640104E+01  2.882830030E-07  0.00000E+00  9.000E+00
      21     1     1     2   501   502  3.114055254E+01 -5.609212024E+01 -2.796902902E+02  2.869542096E+02  2.825046950E-06  0.00000E+00  9.000E+00
       2     1     1     2   511     0 -1.985439497E+01  2.973427114E+01  2.341239212E+02  2.368384328E+02  3.300000000E-01  0.00000E+00  9.000E+00
#rwgt            1          84  -109184.40356763944                1      162944           0
</event>
<event>
      6  10001  1.66549E+05  7.24709E+01 -1.00000E+00  1.30460E-01
      21    -1     0     0   504   503  0.000000000E+00  0.000000000E+00  1.687642220E+03  1.687642220E+03  6.326487967E-06  0.00000E+00  9.000E+00
       3    -1     0     0   501     0  0.000000000E+00  0.000000000E+00 -1.000898060E+02  1.000898060E+02  5.985400970E-07  0.00000E+00  9.000E+00
       3     1     1     2   504     0  2.509087471E+02 -1.178334026E+01  1.077825283E+02  2.733338067E+02  5.000000000E-01  0.00000E+00  9.000E+00
      21     1     1     2   502   503 -2.299305805E+02  2.868970338E+01  1.317961937E+03  1.338175937E+03  3.517719723E-06  0.00000E+00  9.000E+00
      21     1     1     2   501   512  1.603462362E+01 -2.672794256E+01  6.403733739E+01  7.121988942E+01  1.169187217E-06  0.00000E+00  9.000E+00
      21     1     1     2   512   502 -3.701279015E+01  9.821579438E+00  9.777061126E+01  1.050023927E+02  2.081114121E-06  0.00000E+00  9.000E+00
#rwgt            1         258   38363.985260443580                1      171191           0
</event>
<event>
      6  10001 -6.76231E+04  2.04606E+02 -1.00000E+00  1.11288E-01
      21    -1     0     0   504   503  0.000000000E+00  0.000000000E+00  8.124801218E+02  8.124801218E+02  7.528144816E-06  0.00000E+00  9.000E+00
       1    -1     0     0   501     0  0.000000000E+00  0.000000000E+00 -5.211542418E+02  5.211542418E+02  5.308947273E-06  0.00000E+00  9.000E+00
       1     1     1     2   504     0  3.005673452E+02  1.947174672E+02  2.094593629E+02  4.148842666E+02  3.300000000E-01  0.00000E+00  9.000E+00
      21     1     1     2   502   503 -2.033914359E+02 -2.489386545E+02  3.951234304E+02  5.093731983E+02  8.594445544E-06  0.00000E+00  9.000E+00
      21     1     1     2   501   511 -1.645225086E+02 -1.441671664E+01 -1.715870706E+02  2.381546144E+02  1.702405096E-06  0.00000E+00  9.000E+00
      21     1     1     2   511   502  6.734659938E+01  6.863790396E+01 -1.416698427E+02  1.712222843E+02  2.141451202E-06  0.00000E+00  9.000E+00
#rwgt            1         222  -1561.9981344303849                1      172753           0
</event>
<event>
      6  10001 -2.81669E+09  4.52526E+00 -1.00000E+00  2.51444E-01
      21    -1     0     0   505   501  0.000000000E+00  0.000000000E+00  4.516927007E+02  4.516927007E+02  3.449707293E-06  0.00000E+00  9.000E+00
      21    -1     0     0   503   504  0.000000000E+00  0.000000000E+00 -2.861625012E+01  2.861625012E+01  2.247339994E-07  0.00000E+00  9.000E+00
      21     1     1     2   503   502  6.305071723E+00  1.804104077E+00 -9.627125751E+00  1.164861671E+01  5.162496993E-07  0.00000E+00  9.000E+00
      21     1     1     2   502   501  3.945640254E+00  1.381477249E+01 -1.478115608E+01  2.061306845E+01  9.802709275E-07  0.00000E+00  9.000E+00
      21     1     1     2   505   512 -5.178323054E+00 -1.348557214E+01  3.971518063E+02  3.974144348E+02  9.561137665E-06  0.00000E+00  9.000E+00
      21     1     1     2   512   504 -5.072388923E+00 -2.133304429E+00  5.033292610E+01  5.063283092E+01  1.154941076E-06  0.00000E+00  9.000E+00
#rwgt            1         276  -3211468.8427241412                1      176225           0
</event>
<event>
      6  10001  1.96059E+06  4.72556E+01 -1.00000E+00  1.40487E-01
      21    -1     0     0   505   511  0.000000000E+00  0.000000000E+00  5.301856601E+02  5.301856601E+02  5.323384538E-06  0.00000E+00  9.000E+00
      21    -1     0     0   504   505  0.000000000E+00  0.000000000E+00 -5.215599929E+01  5.215599929E+01  1.870977258E-07  0.00000E+00  9.000E+00
      21     1     1     2   502   501 -1.291550160E+02 -3.187849443E+01  2.567210149E+02  2.891417232E+02  1.904162204E-06  0.00000E+00  9.000E+00
      21     1     1     2   503   502  5.299028154E+01 -4.174755500E+01  9.095950100E+01  1.132451284E+02  1.901163325E-06  0.00000E+00  9.000E+00
      21     1     1     2   504   503  4.171066241E+01  4.128403623E+01  2.367500922E+01  6.328235984E+01  2.076043461E-06  0.00000E+00  9.000E+00
      21     1     1     2   501   511  3.445407206E+01  3.234201319E+01  1.066741357E+02  1.166724480E+02  9.402181734E-07  0.00000E+00  9.000E+00
#rwgt            1         276   1346369.7717938405                1      180825           0
</event>
<event>
      6  10001  5.54294E+06  9.83805E+00 -1.00000E+00  1.96576E-01
       2    -1     0     0   501     0  0.000000000E+00  0.000000000E+00  8.216372087E+01  8.216372087E+01  3.601756862E-07  0.00000E+00  9.000E+00
      21    -1     0     0   502   512  0.000000000E+00  0.000000000E+00 -1.992553487E+03  1.992553487E+03  1.407575339E-05  0.00000E+00  9.000E+00
       2     1     1     2   504     0 -8.523224244E+01  3.757311020E+01  4.795272948E+01  1.047656763E+02  3.300000000E-01  0.00000E+00  9.000E+00
      21     1     1     2   502   503  3.053570001E+01 -2.266416898E+01 -2.053156723E+02  2.088076120E+02  1.199048002E-06  0.00000E+00  9.000E+00
      21     1     1     2   503   504  5.795535299E+01 -2.419157974E+01 -2.398658817E+02  2.479509965E+02  5.209427625E-06  0.00000E+00  9.000E+00
      21     1     1     2   501   512 -3.258810563E+00  9.282638515E+00 -1.513160942E+03  1.513192923E+03  2.208390329E-05  0.00000E+00  9.000E+00
#rwgt            1          84   1622867.1651685415                1      181624           0
</event>
<event>
      6  10001  2.94352E+10  1.46626E+01 -1.00000E+00  1.78316E-01
       3    -1     0     0   503     0  0.000000000E+00  0.000000000E+00  5.203152968E+00  5.203152968E+00  1.442903036E-08  0.00000E+00  9.000E+00
       1    -1     0     0   501     0  0.000000000E+00  0.000000000E+00 -3.370257399E+02  3.370257399E+02  1.455375886E-06  0.00000E+00  9.000E+00
      21     1     1     2   503   511 -3.897203795E-01 -1.049303188E+00 -1.488207560E+01  1.492411114E+01  5.220394718E-07  0.00000E+00  9.000E+00
       3     1     1     2   502     0  6.252806764E+00  5.644154555E+00 -2.113556847E+00  8.698919221E+00  5.000000000E-01  0.00000E+00  9.000E+00
      21     1     1     2   501   502  1.012075960E+00  2.499935414E+00  8.085395096E-01  2.815619108E+00  3.635167721E-07  0.00000E+00  9.000E+00
       1     1     1     2   511     0 -6.875162345E+00 -7.094786782E+00 -3.156354940E+02  3.157902434E+02  3.300000000E-01  0.00000E+00  9.000E+00
#rwgt            1         149   272.69918768765694                1      188037           0
</event>
<event>
      6  10001  5.58048E+08  1.56444E+01 -1.00000E+00  1.75676E-01
      21    -1     0     0   505   501  0.000000000E+00  0.000000000E+00  1.027488315E+03  1.027488315E+03  1.033967276E-05  0.00000E+00  9.000E+00
      21    -1     0     0   503   504  0.000000000E+00  0.000000000E+00 -1.654985770E+02  1.654985770E+02  1.111040097E-06  0.00000E+00  9.000E+00
      21     1     1     2   503   502  6.921628676E-01 -1.290371859E+01 -1.557735990E+02  1.563086664E+02  1.056853174E-05  0.00000E+00  9.000E+00
      21     1     1     2   505   504 -1.504314518E+01 -3.601321736E+00  1.004392528E+03  1.004511631E+03  3.420026688E-06  0.00000E+00  9.000E+00
      21     1     1     2   512   501  2.181642435E+00  1.260072680E+01 -1.129500680E+00  1.283797692E+01  7.291907322E-07  0.00000E+00  9.000E+00
      21     1     1     2   502   512  1.216933988E+01  3.904313530E+00  1.450030938E+01  1.932861788E+01  4.334293758E-07  0.00000E+00  9.000E+00
#rwgt            1         276   449060.16354221833                1      195566           0
</event>
<event>
      6  10001  2.32874E+09  6.23547E+00 -1.00000E+00  2.22900E-01
      21    -1     0     0   505   501  0.000000000E+00  0.000000000E+00  9.691719578E+01  9.691719578E+01  9.391320977E-07  0.00000E+00  9.000E+00
      21    -1     0     0   502   503  0.000000000E+00  0.000000000E+00 -2.336726723E+02  2.336726723E+02  8.046518911E-07  0.00000E+00  9.000E+00
      21     1     1     2   505   504  4.454016586E+00  8.000207726E+00 -1.022328789E+02  1.026421118E+02  6.400047823E-07  0.00000E+00  9.000E+00
      21     1     1     2   504   503  4.298332224E+00  1.087309609E+01 -1.298463744E+02  1.303717025E+02  1.136425021E-06  0.00000E+00  9.000E+00
      21     1     1     2   502   511 -4.519795542E-01 -5.357529819E-01  3.921262486E+00  3.983417660E+00  2.872089874E-07  0.00000E+00  9.000E+00
      21     1     1     2   511   501 -8.300369255E+00 -1.833755084E+01  9.140251432E+01  9.359263606E+01  6.193080624E-06  0.00000E+00  9.000E+00
#rwgt            1         276   139973.26599939706                1      203975           0
</event>
<event>
      6  10001  4.49465E+06  2.18080E+01 -1.00000E+00  1.63323E-01
       2    -1     0     0   501     0  0.000000000E+00  0.000000000E+00  6.567580859E+02  6.567580859E+02  3.957500934E-06  0.00000E+00  9.000E+00
      21    -1     0     0   504   503  0.000000000E+00  0.000000000E+00 -3.742120309E+01  3.742120309E+01  3.204447479E-07  0.00000E+00  9.000E+00
       2     1     1     2   504     0  7.963703445E+01 -5.800912365E+01  3.081979963E+02  3.235633315E+02  3.300000000E-01  0.00000E+00  9.000E+00
      21     1     1     2   502   503 -4.607207089E+01  9.406772652E+00 -6.440466486E+00  4.746159180E+01  2.165812612E-06  0.00000E+00  9.000E+00
      21     1     1     2   512   502 -2.996158844E+00  5.516012978E+00  5.150827316E+01  5.188935893E+01  1.417340170E-06  0.00000E+00  9.000E+00
      21     1     1     2   501   512 -3.056880471E+01  4.308633802E+01  2.660710799E+02  2.712650068E+02  9.482420232E-06  0.00000E+00  9.000E+00
#rwgt            1          84   110760.40042304592                1      209933           0
</event>
<event>
      6  10001  1.24554E+05  1.26105E+01 -1.00000E+00  1.84786E-01
      21    -1     0     0   504   503  0.000000000E+00  0.000000000E+00  2.229823400E+02  2.229823400E+02  1.078376112E-06  0.00000E+00  9.000E+00
       2    -1     0     0   501     0  0.000000000E+00  0.000000000E+00 -7.196070676E+02  7.196070676E+02  7.079348560E-07  0.00000E+00  9.000E+00
       2     1     1     2   511     0 -1.463573420E+02 -1.221899694E+02  2.913149129E+01  1.928720116E+02  3.300000000E-01  0.00000E+00  9.000E+00
      21     1     1     2   501   502  2.060987963E+02  1.716454571E+02 -4.833930833E+02  5.528180078E+02  9.896086455E-06  0.00000E+00  9.000E+00
      21     1     1     2   502   503  2.276899600E+01  3.103576640E+01 -6.861950900E+01  7.867835147E+01  8.619580448E-07  0.00000E+00  9.000E+00
      21     1     1     2   504   511 -8.251045027E+01 -8.049125404E+01  2.625637332E+01  1.182210367E+02  3.886195476E-06  0.00000E+00  9.000E+00
#rwgt            1         234   1982.7311594196592                1      215215           0
</event>
<event>
      6  10001  2.33736E+06  7.38336E+01 -1.00000E+00  1.30057E-01
      -2    -1     0     0     0   501  0.000000000E+00  0.000000000E+00  2.520530727E+02  2.520530727E+02  1.791146750E-06  0.00000E+00  9.000E+00
      21    -1     0     0   503   504  0.000000000E+00  0.000000000E+00 -8.010563995E+02  8.010563995E+02  3.916127060E-06  0.00000E+00  9.000E+00
      -2     1     1     2     0   504 -2.181202527E+01 -9.177676458E+01  2.038038906E+02  2.245770997E+02  3.300000000E-01  0.00000E+00  9.000E+00
      21     1     1     2   503   502 -1.150283247E+01  2.496611181E+01 -6.995209617E+02  7.000608529E+02  1.076450712E-05  0.00000E+00  9.000E+00
      21     1     1     2   502   512 -1.178983099E+01  6.255764433E+01 -7.566882427E+00  6.410707206E+01  2.581050859E-06  0.00000E+00  9.000E+00
      21     1     1     2   512   501  4.510468873E+01  4.253008435E+00 -4.571937325E+01  6.436444761E+01  4.790088785E-07  0.00000E+00  9.000E+00
#rwgt            1          63   27266.140143902878                1      218043           0
</event>
<event>
      6  10001  3.46672E+09  6.38566E+00 -1.00000E+00  2.21345E-01
       1    -1     0     0   502     0  0.000000000E+00  0.000000000E+00  2.870991994E+02  2.870991994E+02  1.497685807E-06  0.00000E+00  9.000E+00
       3    -1     0     0   501     0  0.000000000E+00  0.000000000E+00 -8.719724920E+00  8.719724920E+00  2.026782467E-08  0.00000E+00  9.000E+00
       1     1     1     2   501     0  1.849431550E+01 -2.642889841E+00  1.868947328E+02  1.878264481E+02  3.300000000E-01  0.00000E+00  9.000E+00
       3     1     1     2   511     0 -4.362301266E+00  1.570483317E+00 -6.023552814E+00  7.617695104E+00  5.000000000E-01  0.00000E+00  9.000E+00
      21     1     1     2   502   503 -7.502363565E+00  1.130873660E+00  9.015599539E+01  9.047468065E+01  1.780731712E-06  0.00000E+00  9.000E+00
      21     1     1     2   503   511 -6.629650670E+00 -5.846713624E-02  7.352299134E+00  9.900100453E+00  2.070076612E-07  0.00000E+00  9.000E+00
#rwgt            1          34   9514.5810707756682                1      221086           0
</event>
<event>
      6  10001  1.22703E+07  1.55274E+01 -1.00000E+00  1.75978E-01
      21    -1     0     0   505   501  0.000000000E+00  0.000000000E+00  5.822046670E+01  5.822046670E+01  4.061230161E-07  0.00000E+00  9.000E+00
      21    -1     0     0   502   503  0.000000000E+00  0.000000000E+00 -1.871519724E+02  1.871519724E+02  2.468772569E-07  0.00000E+00  9.000E+00
      21     1     1     2   505   504 -1.602463678E+01  1.801895791E+01  1.785675584E+01  3.000559210E+01  4.504813847E-07  0.00000E+00  9.000E+00
      21     1     1     2   504   503 -4.839899772E+01 -2.227451741E+01 -1.212282449E+02  1.324194264E+02  9.366515274E-07  0.00000E+00  9.000E+00
      21     1     1     2   502   512  6.750904698E+01  3.147288673E-01 -1.209813418E+01  6.858524133E+01  9.857337147E-07  0.00000E+00  9.000E+00
      21     1     1     2   512   501 -3.085412481E+00  3.940830635E+00 -1.346188238E+01  1.436217928E+01  2.201134871E-07  0.00000E+00  9.000E+00
#rwgt            1         276   71490.204810757787                1      222283           0
</event>
<event>
      6  10001  3.96715E+08  2.53959E+01 -1.00000E+00  1.58239E-01
      21    -1     0     0   505   501  0.000000000E+00  0.000000000E+00  1.018168409E+02  1.018168409E+02  3.118981402E-07  0.00000E+00  9.000E+00
      21    -1     0     0   503   504  0.000000000E+00  0.000000000E+00 -1.803278096E+01  1.803278096E+01  3.888696259E-08  0.00000E+00  9.000E+00
      21     1     1     2   505   504  9.423501786E+00  3.053024307E+01  1.280167346E+01  3.442064746E+01  7.556118057E-07  0.00000E+00  9.000E+00
      21     1     1     2   503   502 -5.038162766E+00 -2.594862270E+01  1.876751078E+01  3.241810551E+01  4.324458467E-07  0.00000E+00  9.000E+00
      21     1     1     2   502   511 -9.593809479E-01  9.422904462E-01  2.222253600E+00  2.597447622E+00  5.591936355E-08  0.00000E+00  9.000E+00
      21     1     1     2   511   501 -3.425958072E+00 -5.523910819E+00  4.999262208E+01  5.041342125E+01  9.397231887E-07  0.00000E+00  9.000E+00
#rwgt            1         276   234449.76685700187                1      228060           0
</event>
<event>
      6  10001  2.80931E+09  5.95876E+00 -1.00000E+00  2.25932E-01
      21    -1     0     0   505   501  0.000000000E+00  0.000000000E+00  2.410663767E+02  2.410663767E+02  1.795999453E-06  0.00000E+00  9.000E+00
      21    -1     0     0   504   505  0.000000000E+00  0.000000000E+00 -3.062813255E+00  3.062813255E+00  2.292141840E-08  0.00000E+00  9.000E+00
      21     1     1     2   503   502 -1.005540064E+01  1.036812822E+01  1.733247736E+02  1.739255194E+02  1.909627200E-06  0.00000E+00  9.000E+00
      21     1     1     2   504   503  1.482326868E+01 -6.990741466E+00  2.756872379E+01  3.207232907E+01  5.033269987E-07  0.00000E+00  9.000E+00
      21     1     1     2   512   501 -1.420138130E+00 -3.905389801E+00  1.028136266E+01  1.108942199E+01  9.935640306E-08  0.00000E+00  9.000E+00
      21     1     1     2   502   512 -3.347729913E+00  5.280030461E-01  2.682870344E+01  2.704191951E+01  1.925533987E-07  0.00000E+00  9.000E+00
#rwgt            1         276   5080135.5188986948                1      228730           0
</event>
<event>
      6  10001  5.81470E+07  4.07415E+01 -1.00000E+00  1.44345E-01
      21    -1     0     0   505   501  0.000000000E+00  0.000000000E+00  1.622498705E+01  1.622498705E+01  1.593311344E-07  0.00000E+00  9.000E+00
      21    -1     0     0   504   505  0.000000000E+00  0.000000000E+00 -6.107275841E+02  6.107275841E+02  2.318878267E-06  0.00000E+00  9.000E+00
      21     1     1     2   502   501  1.607114748E+01  4.221150494E+01 -2.430614566E+01  5.129212072E+01  1.061323900E-06  0.00000E+00  9.000E+00
      21     1     1     2   504   503 -5.361910287E+00 -2.606505593E+01 -4.309591151E+02  4.317799163E+02  9.216899283E-06  0.00000E+00  9.000E+00
      21     1     1     2   511   502 -1.013726689E+01 -2.189852249E-01 -1.227288454E+01  1.591966800E+01  1.167064233E-06  0.00000E+00  9.000E+00
      21     1     1     2   503   511 -5.719703107E-01 -1.592746379E+01 -1.269644517E+02  1.279608661E+02  3.904629951E-06  0.00000E+00  9.000E+00
#rwgt            1         276   727459.31736250303                1      230180           0
</event>
<event>
      6  10001  2.85159E+07  1.83204E+01 -1.00000E+00  1.69572E-01
      21    -1     0     0   505   501  0.000000000E+00  0.000000000E+00  5.603739036E+01  5.603739036E+01  4.371669069E-07  0.00000E+00  9.000E+00
      21    -1     0     0   501   502  0.000000000E+00  0.000000000E+00 -3.104427657E+02  3.104427657E+02  2.483870039E-06  0.00000E+00  9.000E+00
      21     1     1     2   504   503 -2.308444989E+01 -4.624135667E+01  3.454050358E+01  6.216270008E+01  1.399287143E-06  0.00000E+00  9.000E+00
      21     1     1     2   503   502  2.183511446E+00  4.889111866E+01 -2.645998278E+02  2.690876773E+02  4.304787088E-06  0.00000E+00  9.000E+00
      21     1     1     2   505   512  6.762670214E+00 -3.265187101E-01  2.385107592E-01  6.774747986E+00  2.879675614E-07  0.00000E+00  9.000E+00
      21     1     1     2   512   504  1.413826823E+01 -2.323243273E+00 -2.458456181E+01  2.845503062E+01  6.606092049E-07  0.00000E+00  9.000E+00
#rwgt            1         276   1847363.5743082128                1      230530           0
</event>
<event>
      6  10001  1.25502E+08  1.32266E+01 -1.00000E+00  1.82687E-01
       2    -1     0     0   501     0  0.000000000E+00  0.000000000E+00  9.091909029E+02  9.091909029E+02  6.621235256E-06  0.00000E+00  9.000E+00
       1    -1     0     0   503     0  0.000000000E+00  0.000000000E+00 -2.191367310E+02  2.191367310E+02  1.375582498E-06  0.00000E+00  9.000E+00
       2     1     1     2   504     0 -8.325074301E+00  1.393940295E+01  6.491620254E+02  6.493651192E+02  3.300000000E-01  0.00000E+00  9.000E+00
      21     1     1     2   503   504 -3.601293469E+01 -6.579428932E+00 -1.575254700E+02  1.617235111E+02  6.972004528E-06  0.00000E+00  9.000E+00
      21     1     1     2   501   502  3.401181299E+01 -1.562504968E+01  2.557120159E+02  2.584368021E+02  3.935617277E-06  0.00000E+00  9.000E+00
       1     1     1     2   502     0  1.032619600E+01  8.265075659E+00 -5.729439936E+01  5.880220147E+01  3.300000000E-01  0.00000E+00  9.000E+00
#rwgt            1          84   82787.543630281449                1      234356           0
</event>
<event>
      6  10001  4.76018E+04  2.25483E+02 -1.00000E+00  1.09783E-01
      21    -1     0     0   505   501  0.000000000E+00  0.000000000E+00  9.365200224E+02  9.365200224E+02  4.584234897E-06  0.00000E+00  9.000E+00
      21    -1     0     0   503   504  0.000000000E+00  0.000000000E+00 -3.149309858E+02  3.149309858E+02  1.844406700E-06  0.00000E+00  9.000E+00
      21     1     1     2   502   501 -1.120245442E+02 -1.704358108E+02  1.266558438E+02  2.400824168E+02  2.118158843E-06  0.00000E+00  9.000E+00
      21     1     1     2   503   502  6.573158001E+01 -2.929608947E+02 -3.399298772E+01  3.021626212E+02  1.116064937E-05  0.00000E+00  9.000E+00
      21     1     1     2   511   504  2.200441311E+01  3.850438933E+01  7.378548227E+01  8.608762738E+01  3.780489577E-06  0.00000E+00  9.000E+00
      21     1     1     2   505   511  2.428855107E+01  4.248923161E+02  4.551406982E+02  6.231183429E+02  3.111653293E-05  0.00000E+00  9.000E+00
#rwgt            1         276   274445.58149198850                1      239522           0
</event>
<event>
      6  10001  1.17138E+07  2.15786E+01 -1.00000E+00  1.63689E-01
      21    -1     0     0   505   501  0.000000000E+00  0.000000000E+00  2.127599804E+02  2.127599804E+02  8.542648041E-07  0.00000E+00  9.000E+00
      21    -1     0     0   512   503  0.000000000E+00  0.000000000E+00 -5.357514123E+01  5.357514123E+01  4.299965837E-07  0.00000E+00  9.000E+00
      21     1     1     2   505   504  2.370211107E+01  1.336870724E+01  8.315515367E+01  8.749452546E+01  2.079362719E-06  0.00000E+00  9.000E+00
      21     1     1     2   502   501  4.696271932E+01 -1.071594272E+01  3.350232687E+00  4.828615219E+01  1.493467896E-06  0.00000E+00  9.000E+00
      21     1     1     2   504   503 -8.240626222E+01  1.545179793E+01  6.916981090E+01  1.086922852E+02  1.631142232E-06  0.00000E+00  9.000E+00
      21     1     1     2   512   502  1.174143183E+01 -1.810456245E+01  3.509641913E+00  2.186215884E+01  4.164460747E-07  0.00000E+00  9.000E+00
#rwgt            1         276   89366.822726324899                1      243392           0
</event>
<event>
      6  10001  1.45959E+12  8.94427E-01 -1.00000E+00  7.52641E-01
      -2    -1     0     0     0   502  0.000000000E+00  0.000000000E+00  6.877715368E-01  6.877715368E-01  3.312872588E-09  0.00000E+00  9.000E+00
      21    -1     0     0   502   503  0.000000000E+00  0.000000000E+00 -2.379758185E+02  2.379758185E+02  1.724565386E-06  0.00000E+00  9.000E+00
      21     1     1     2   501   511 -1.917000924E+00  4.469242744E-01 -3.290750240E+00  3.834536607E+00  4.291796655E-07  0.00000E+00  9.000E+00
      -2     1     1     2     0   501  3.932667420E+00 -9.907736852E-01 -9.809372294E+00  1.061980180E+01  3.300000000E-01  0.00000E+00  9.000E+00
      -2     1     1     2     0   503 -1.696345783E+00  4.601639198E-01 -2.163786549E+02  2.163860451E+02  3.300000000E-01  0.00000E+00  9.000E+00
       2     1     1     2   511     0 -3.193207127E-01  8.368549098E-02 -7.809269580E+00  7.823206526E+00  3.300000000E-01  0.00000E+00  9.000E+00
#rwgt            2        1215   240.57595886895712                1      244674           0
</event>
<event>
      6  10001  3.00674E+07  2.04478E+01 -1.00000E+00  1.65576E-01
      21    -1     0     0   512   501  0.000000000E+00  0.000000000E+00  8.596550074E+02  8.596550074E+02  7.484630547E-06  0.00000E+00  9.000E+00
      21    -1     0     0   503   504  0.000000000E+00  0.000000000E+00 -4.162061862E+01  4.162061862E+01  1.246827530E-07  0.00000E+00  9.000E+00
      -4     1     1     2     0   504  4.945923534E+01  3.481712646E+01  3.322103992E+02  3.376750622E+02  1.500000000E+00  0.00000E+00  9.000E+00
      21     1     1     2   503   502 -1.612249239E+01 -2.231560878E+01 -3.184879864E+01  4.209830319E+01  3.009725987E-06  0.00000E+00  9.000E+00
      21     1     1     2   502   501 -2.629646087E+01 -3.169714654E+01  2.902679009E+02  2.931751477E+02  5.088407298E-06  0.00000E+00  9.000E+00
       4     1     1     2   512     0 -7.040282081E+00  1.919562886E+01  2.274048873E+02  2.283271130E+02  1.500000000E+00  0.00000E+00  9.000E+00
#rwgt            1         105   865.90467260343166                1      245456           0
</event>
<event>
      6  10001 -1.19453E+09  1.70915E+01 -1.00000E+00  1.72201E-01
      21    -1     0     0   505   501  0.000000000E+00  0.000000000E+00  2.203068068E+02  2.203068068E+02  1.879450393E-06  0.00000E+00  9.000E+00
      21    -1     0     0   502   503  0.000000000E+00  0.000000000E+00 -4.757569515E+00  4.757569515E+00  3.215699560E-08  0.00000E+00  9.000E+00
      21     1     1     2   502   501 -1.916977943E+01  1.321899053E+01  8.533414168E+01  8.845415699E+01  2.078780699E-06  0.00000E+00  9.000E+00
      21     1     1     2   504   503  1.641166684E+01 -7.939369000E+00  1.098623507E+02  1.113647722E+02  1.941255840E-06  0.00000E+00  9.000E+00
      21     1     1     2   511   504 -5.533949212E+00 -1.112565226E+00  7.219542705E+00  9.164288960E+00  3.066716181E-07  0.00000E+00  9.000E+00
      21     1     1     2   505   511  8.292061799E+00 -4.167056303E+00  1.313320217E+01  1.608115812E+01  3.808634403E-07  0.00000E+00  9.000E+00
#rwgt            1         276  -5321.1463855553166                1      248472           0
</event>
<event>
      6  10001  2.81402E+08  2.59649E+01 -1.00000E+00  1.57526E-01
      21    -1     0     0   503   502  0.000000000E+00  0.000000000E+00  1.144664525E+03  1.144664525E+03  8.607990181E-06  0.00000E+00  9.000E+00
       1    -1     0     0   501     0  0.000000000E+00  0.000000000E+00 -2.561103675E+02  2.561103675E+02  1.542318590E-06  0.00000E+00  9.000E+00
       1     1     1     2   504     0 -1.991172850E+01  8.706504417E+00 -2.239121207E+02  2.249645013E+02  3.300000000E-01  0.00000E+00  9.000E+00
      21     1     1     2   503   504  8.291127525E+00  1.761425522E+01  1.136067089E+03  1.136233883E+03  1.603603710E-06  0.00000E+00  9.000E+00
      21     1     1     2   501   512 -7.778621231E-01 -9.602765166E+00 -2.533939917E+00  9.961878328E+00  4.587100809E-07  0.00000E+00  9.000E+00
      21     1     1     2   512   502  1.239846309E+01 -1.671799447E+01 -2.106687160E+01  2.961462992E+01  1.475335603E-06  0.00000E+00  9.000E+00
#rwgt            1         222   230287.83449903299                1      248863           0
</event>
<event>
      6  10001 -2.75328E+07  1.90189E+01 -1.00000E+00  1.68189E-01
      21    -1     0     0   505   511  0.000000000E+00  0.000000000E+00  7.251310634E+02  7.251310634E+02  6.163370577E-06  0.00000E+00  9.000E+00
      21    -1     0     0   503   504  0.000000000E+00  0.000000000E+00 -2.454288127E+02  2.454288127E+02  1.890764636E-06  0.00000E+00  9.000E+00
      21     1     1     2   502   501  1.670790366E+01 -2.489003567E+01  6.266389050E+02  6.273555492E+02  8.842313608E-06  0.00000E+00  9.000E+00
      21     1     1     2   503   502  1.854707263E+01 -1.586462898E+01  1.104973695E+01  2.679136134E+01  2.312003179E-07  0.00000E+00  9.000E+00
      21     1     1     2   505   504 -4.768738866E+01  5.514747702E+01 -2.303393691E+02  2.416020617E+02  4.247018733E-06  0.00000E+00  9.000E+00
      21     1     1     2   501   511  1.243241237E+01 -1.439281237E+01  7.235297792E+01  7.481090388E+01  9.412312186E-07  0.00000E+00  9.000E+00
#rwgt            1         276  -6889.9290825804283                1      250836           0
</event>
<event>
      6  10001  7.25901E+07  7.16815E+00 -1.00000E+00  2.14101E-01
      21    -1     0     0   505   501  0.000000000E+00  0.000000000E+00  3.021494102E+01  3.021494102E+01  2.310126399E-07  0.00000E+00  9.000E+00
      21    -1     0     0   502   503  0.000000000E+00  0.000000000E+00 -4.212168218E+02  4.212168218E+02  1.818399205E-06  0.00000E+00  9.000E+00
      21     1     1     2   504   503  2.221451254E+01  2.169590777E+01 -3.752455680E+02  3.765281308E+02  4.984414786E-06  0.00000E+00  9.000E+00
      21     1     1     2   505   504 -3.695817508E+01 -3.283313124E+01  3.296075031E-01  4.943713031E+01  6.795821224E-07  0.00000E+00  9.000E+00
      21     1     1     2   512   501  7.880377929E+00  7.351953487E+00 -1.336661376E+01  1.717026324E+01  2.008465708E-07  0.00000E+00  9.000E+00
      21     1     1     2   502   512  6.863284605E+00  3.785269985E+00 -2.719306494E+00  8.296238439E+00  2.283141461E-07  0.00000E+00  9.000E+00
#rwgt            1         276   19060.535161078144                1      254480           0
</event>
<event>
      6  10001  2.59106E+08  4.51157E+01 -1.00000E+00  1.41669E-01
      21    -1     0     0   505   501  0.000000000E+00  0.000000000E+00  9.494458249E+01  9.494458249E+01  4.976955645E-07  0.00000E+00  9.000E+00
      21    -1     0     0   502   503  0.000000000E+00  0.000000000E+00 -4.962725122E+01  4.962725122E+01  4.718607887E-07  0.00000E+00  9.000E+00
      21     1     1     2   504   503 -2.972210134E+01  5.185910066E+00 -3.684139664E+01  4.761917133E+01  5.970082939E-07  0.00000E+00  9.000E+00
      21     1     1     2   505   504  5.255388243E+00  1.059225740E+01  5.469744153E+00  1.302816655E+01  1.777761695E-07  0.00000E+00  9.000E+00
      21     1     1     2   511   501  7.425437223E+00 -2.891549140E+00  5.719291074E+00  9.808591376E+00  9.218077740E-08  0.00000E+00  9.000E+00
      21     1     1     2   502   511  1.704127587E+01 -1.288661833E+01  7.096969268E+01  7.411590446E+01  2.517452685E-07  0.00000E+00  9.000E+00
#rwgt            1         276   2254988.7451417395                1      258245           0
</event>
<event>
      6  10001  5.47258E+06  1.97592E+01 -1.00000E+00  1.66801E-01
      -3    -1     0     0     0   502  0.000000000E+00  0.000000000E+00  1.644001673E+01  1.644001673E+01  1.577909107E-07  0.00000E+00  9.000E+00
       3    -1     0     0   503     0  0.000000000E+00  0.000000000E+00 -5.867868844E+02  5.867868844E+02  1.569627333E-06  0.00000E+00  9.000E+00
       3     1     1     2   501     0 -1.668247442E+01 -4.879160653E+01 -1.836109386E+02  1.907148463E+02  5.000000000E-01  0.00000E+00  9.000E+00
      -3     1     1     2     0   501  6.985214189E+01  1.848421647E+01 -2.104230487E+02  2.224839262E+02  5.000000000E-01  0.00000E+00  9.000E+00
      21     1     1     2   512   502 -4.087284088E+01  2.952559068E+01 -9.282021435E+01  1.056311593E+02  3.624642350E-06  0.00000E+00  9.000E+00
      21     1     1     2   503   512 -1.229682659E+01  7.817993822E-01 -8.349266603E+01  8.439696935E+01  1.764436525E-06  0.00000E+00  9.000E+00
#rwgt            1         137   62.272697965146882                1      262481           0
</event>
<event>
      6  10001  2.07225E+06  1.66647E+01 -1.00000E+00  1.73180E-01
      21    -1     0     0   502   503  0.000000000E+00  0.000000000E+00  7.932216285E+02  7.932216285E+02  6.779662797E-06  0.00000E+00  9.000E+00
      21    -1     0     0   501   511  0.000000000E+00  0.000000000E+00 -4.018651544E+01  4.018651544E+01  7.699695268E-08  0.00000E+00  9.000E+00
       1     1     1     2   501     0  9.241609078E+01 -3.876629690E+01  1.834756810E+02  2.090621774E+02  3.300000000E-01  0.00000E+00  9.000E+00
      -1     1     1     2     0   504 -1.254108361E+02  4.652423299E+01  4.910130625E+02  5.089069841E+02  3.300000000E-01  0.00000E+00  9.000E+00
      21     1     1     2   504   503  1.638063003E+01 -9.055305605E+00  9.208499745E+01  9.396792195E+01  3.183308981E-07  0.00000E+00  9.000E+00
      21     1     1     2   502   511  1.661411528E+01  1.297369520E+00 -1.353862784E+01  2.147106048E+01  6.300148902E-07  0.00000E+00  9.000E+00
#rwgt            1         271   51518.244421002622                1      266032           0
</event>
<event>
      6  10001  2.89904E+08  2.39429E+01 -1.00000E+00  1.60166E-01
       3    -1     0     0   501     0  0.000000000E+00  0.000000000E+00  2.714892546E+02  2.714892546E+02  2.069392317E-06  0.00000E+00  9.000E+00
      21    -1     0     0   503   502  0.000000000E+00  0.000000000E+00 -9.327596508E+00  9.327596508E+00  7.349607449E-08  0.00000E+00  9.000E+00
      21     1     1     2   504   512 -8.180573536E+00 -3.535431435E+00  2.941007852E+01  3.073066510E+01  1.090642841E-06  0.00000E+00  9.000E+00
      21     1     1     2   503   504  8.628483698E+00 -4.228125992E-01  6.055403957E+01  6.116715794E+01  9.857436278E-07  0.00000E+00  9.000E+00
      21     1     1     2   501   502  2.573190604E+01  1.387748648E-01  1.557907101E+01  3.008085272E+01  1.234897881E-06  0.00000E+00  9.000E+00
       3     1     1     2   512     0 -2.617981620E+01  3.819469169E+00  1.566184690E+02  1.588381754E+02  5.000000000E-01  0.00000E+00  9.000E+00
#rwgt            1         168   11472.629497496531                1      267714           0
</event>
<event>
      6  10001  3.87994E+11  1.72726E+00 -1.00000E+00  3.95635E-01
      21    -1     0     0   502   503  0.000000000E+00  0.000000000E+00  5.415080328E-01  5.415080328E-01  1.518782437E-09  0.00000E+00  9.000E+00
       2    -1     0     0   503     0  0.000000000E+00  0.000000000E+00 -8.990424060E+02  8.990424060E+02  4.460064952E-06  0.00000E+00  9.000E+00
       2     1     1     2   501     0 -2.884095485E+00  6.516868345E-01 -7.703876695E+02  7.703934144E+02  3.300000000E-01  0.00000E+00  9.000E+00
      21     1     1     2   502   511 -1.244093439E-01 -3.632278447E+00 -1.087404647E+02  1.088011837E+02  4.879400742E-06  0.00000E+00  9.000E+00
      -2     1     1     2     0   501  2.178879260E+00  2.582127066E+00 -5.373597180E+00  6.356047645E+00  3.300000000E-01  0.00000E+00  9.000E+00
       2     1     1     2   511     0  8.296255693E-01  3.984645466E-01 -1.399916662E+01  1.403326828E+01  3.300000000E-01  0.00000E+00  9.000E+00
#rwgt            2        4441   352310.22360004409                1      268998           0
</event>
<event>
      6  10001  5.70483E+08  2.83388E+01 -1.00000E+00  1.54776E-01
      21    -1     0     0   505   501  0.000000000E+00  0.000000000E+00  9.433954169E+01  9.433954169E+01  7.853672703E-07  0.00000E+00  9.000E+00
      21    -1     0     0   502   503  0.000000000E+00  0.000000000E+00 -2.167061727E+01  2.167061727E+01  6.759999968E-08  0.00000E+00  9.000E+00
      21     1     1     2   505   504 -9.759749601E-01  2.802758048E+00  4.544685163E+01  4.554365271E+01  5.765748297E-07  0.00000E+00  9.000E+00
      21     1     1     2   502   501  5.713031152E+00  2.608996498E+01  3.034738212E+01  4.042633547E+01  1.075133789E-06  0.00000E+00  9.000E+00
      21     1     1     2   512   503  3.659459507E-01 -1.677811606E+00  1.087031010E+00  2.032388900E+00  7.976958196E-08  0.00000E+00  9.000E+00
      21     1     1     2   504   512 -5.103002143E+00 -2.721491142E+01 -4.212340332E+00  2.800778188E+01  1.990931579E-06  0.00000E+00  9.000E+00
#rwgt            1         276   1611646.0610212274                1      269066           0
</event>
<event>
      6  10001 -2.44649E+08  1.43551E+01 -1.00000E+00  1.79197E-01
      21    -1     0     0   505   501  0.000000000E+00  0.000000000E+00  1.277799140E+03  1.277799140E+03  8.297791564E-06  0.00000E+00  9.000E+00
      21    -1     0     0   503   511  0.000000000E+00  0.000000000E+00 -4.699926134E+02  4.699926134E+02  3.069011181E-06  0.00000E+00  9.000E+00
      21     1     1     2   505   504 -3.434268595E+01  1.271083369E+01 -5.180412728E+00  3.698407829E+01  9.936796055E-07  0.00000E+00  9.000E+00
      21     1     1     2   502   501  9.356615859E+00 -7.623709402E+00  1.260941724E+03  1.260999484E+03  1.296979117E-05  0.00000E+00  9.000E+00
      21     1     1     2   503   502  1.546756763E+01 -1.583262789E+01 -3.608725143E+02  3.615506732E+02  1.351188582E-05  0.00000E+00  9.000E+00
      21     1     1     2   504   511  9.518502458E+00  1.074550360E+01 -8.708227020E+01  8.825751821E+01  7.723878291E-07  0.00000E+00  9.000E+00
#rwgt            1         276  -2167931.8889983855                1      270462           0
</event>
<event>
      6  10001  7.13145E+07  4.00324E+00 -1.00000E+00  2.63379E-01
      21    -1     0     0   505   501  0.000000000E+00  0.000000000E+00  1.006766051E+02  1.006766051E+02  7.043215823E-07  0.00000E+00  9.000E+00
      21    -1     0     0   502   503  0.000000000E+00  0.000000000E+00 -4.515264399E+01  4.515264399E+01  2.106519086E-07  0.00000E+00  9.000E+00
      21     1     1     2   505   504  4.595243931E+00  9.799819899E-01  4.705342627E+01  4.728743549E+01  6.262447760E-07  0.00000E+00  9.000E+00
      21     1     1     2   504   503  4.170100843E+01 -1.886368670E+01  1.540828185E+01  4.829314578E+01  6.323204038E-07  0.00000E+00  9.000E+00
      21     1     1     2   512   501 -2.019141683E+01  9.053858691E+00 -4.517985001E+00  2.258490335E+01  8.723523989E-07  0.00000E+00  9.000E+00
      21     1     1     2   502   512 -2.610483553E+01  8.829846022E+00 -2.419761973E+00  2.766376451E+01  1.015567765E-06  0.00000E+00  9.000E+00
#rwgt            1         276   3475208.0558330379                1      280233           0
</event>
<event>
      6  10001  2.74911E+05  1.42667E+02 -1.00000E+00  1.17261E-01
      21    -1     0     0   501   502  0.000000000E+00  0.000000000E+00  6.163409563E+02  6.163409563E+02  4.033901228E-06  0.00000E+00  9.000E+00
      21    -1     0     0   503   504  0.000000000E+00  0.000000000E+00 -4.720747879E+02  4.720747879E+02  1.378947731E-06  0.00000E+00  9.000E+00
       5     1     1     2   501     0 -1.355015911E+02 -1.132546391E+02 -2.923613801E+02  3.415926097E+02  4.800000000E+00  0.00000E+00  9.000E+00
      21     1     1     2   511   504  5.487422210E+01  9.719490508E+00 -4.478891133E+01  7.149612105E+01  3.133157730E-06  0.00000E+00  9.000E+00
      21     1     1     2   503   502  1.264317586E+02  1.673512988E+02  5.386319304E+02  5.780275108E+02  1.351062302E-05  0.00000E+00  9.000E+00
      -5     1     1     2     0   511 -4.580438960E+01 -6.381615019E+01 -5.721547068E+01  9.729950265E+01  4.800000000E+00  0.00000E+00  9.000E+00
#rwgt            1         275   220925.12073390183                1      284606           0
</event>
<event>
      6  10001  4.01263E+06  1.23724E+01 -1.00000E+00  1.85639E-01
      21    -1     0     0   505   501  0.000000000E+00  0.000000000E+00  5.187796845E+02  5.187796845E+02  5.061601370E-06  0.00000E+00  9.000E+00
      21    -1     0     0   512   503  0.000000000E+00  0.000000000E+00 -4.969900497E+01  4.969900497E+01  1.517363841E-07  0.00000E+00  9.000E+00
      21     1     1     2   505   504  5.382805281E+01 -2.739386447E+00  3.021925495E+02  3.069613990E+02  2.696332941E-06  0.00000E+00  9.000E+00
      21     1     1     2   502   501 -9.440828801E+01 -3.519078875E+01  1.070280218E+02  1.469908633E+02  3.097709868E-06  0.00000E+00  9.000E+00
      21     1     1     2   504   503  4.964498621E+01  2.950959179E+01  7.520045458E+01  9.481850574E+01  2.227281927E-06  0.00000E+00  9.000E+00
      21     1     1     2   512   502 -9.064751012E+00  8.420583407E+00 -1.534034638E+01  1.970792132E+01  6.588383774E-07  0.00000E+00  9.000E+00
#rwgt            1         276   1538014.9910342644                1      288288           0
</event>
<event>
      6  10001  4.47755E+09  8.94427E-01 -1.00000E+00  7.52641E-01
      21    -1     0     0   503   504  0.000000000E+00  0.000000000E+00  2.028080228E+01  2.028080228E+01  3.365103554E-08  0.00000E+00  9.000E+00
      21    -1     0     0   501   502  0.000000000E+00  0.000000000E+00 -1.619139826E+01  1.619139826E+01  1.538180778E-07  0.00000E+00  9.000E+00
       2     1     1     2   501     0 -1.288506875E+01  9.885602453E+00 -2.058091051E+00  1.637359983E+01  3.300000000E-01  0.00000E+00  9.000E+00
      21     1     1     2   511   504  6.014576474E+00 -9.982834764E+00  4.209963053E+00  1.239176779E+01  2.610773716E-07  0.00000E+00  9.000E+00
      21     1     1     2   503   502  6.918539997E+00  2.351595682E-01  2.196500183E+00  7.262651634E+00  1.482665212E-07  0.00000E+00  9.000E+00
      -2     1     1     2     0   511 -4.804771924E-02 -1.379272575E-01 -2.589681659E-01  4.441812948E-01  3.300000000E-01  0.00000E+00  9.000E+00
#rwgt            2        5014   840.84621529564913                1      290762           0
</event>
<event>
      6  10001  2.12548E+07  3.91406E+01 -1.00000E+00  1.45425E-01
      21    -1     0     0   505   501  0.000000000E+00  0.000000000E+00  5.655401000E+01  5.655401000E+01  7.698005271E-08  0.00000E+00  9.000E+00
      21    -1     0     0   502   503  0.000000000E+00  0.000000000E+00 -2.643938972E+02  2.643938972E+02  1.939823927E-06  0.00000E+00  9.000E+00
      21     1     1     2   504   503 -1.855727668E+01  4.207206856E+01 -1.634134890E+02  1.697598300E+02  2.455036239E-06  0.00000E+00  9.000E+00
      21     1     1     2   505   504  1.824185303E+01  1.295792892E+01  3.885152866E+01  4.483429941E+01  1.546808378E-06  0.00000E+00  9.000E+00
      -1     1     1     2     0   501 -1.652430631E+01 -2.758363519E+01 -2.931636905E+01  4.351399802E+01  3.300000000E-01  0.00000E+00  9.000E+00
       1     1     1     2   502     0  1.683972996E+01 -2.744636230E+01 -5.396155782E+01  6.283977984E+01  3.300000000E-01  0.00000E+00  9.000E+00
#rwgt            1         276   780801.22959343134                1      292027           0
</event>
<event>
      6  10001  1.23474E+05  2.19944E+01 -1.00000E+00  1.63030E-01
      21    -1     0     0   502   501  0.000000000E+00  0.000000000E+00  2.391437063E+02  2.391437063E+02  1.271534714E-06  0.00000E+00  9.000E+00
       2    -1     0     0   501     0  0.000000000E+00  0.000000000E+00 -5.959100725E+02  5.959100725E+02  2.799458039E-06  0.00000E+00  9.000E+00
       2     1     1     2   504     0 -2.406900388E+02 -1.483595021E+02 -3.803112290E+02  4.738976434E+02  3.300000000E-01  0.00000E+00  9.000E+00
      21     1     1     2   502   503 -1.411554263E+01 -4.899256653E+00  3.942165108E+01  4.215824751E+01  1.484122844E-06  0.00000E+00  9.000E+00
      21     1     1     2   503   511  2.665582068E+02  1.514685083E+02 -1.356904881E+01  3.068877738E+02  5.156132503E-06  0.00000E+00  9.000E+00
      21     1     1     2   511   504 -1.175262536E+01  1.790250376E+00 -2.307739486E+00  1.211011398E+01  1.388390408E-07  0.00000E+00  9.000E+00
#rwgt            1         234   1442.2633792530148                1      295003           0
</event>
<event>
      6  10001 -8.14876E+06  5.54383E+01 -1.00000E+00  1.36562E-01
      21    -1     0     0   505   501  0.000000000E+00  0.000000000E+00  5.585003816E+02  5.585003816E+02  4.794908261E-06  0.00000E+00  9.000E+00
      21    -1     0     0   501   502  0.000000000E+00  0.000000000E+00 -3.049044632E+02  3.049044632E+02  1.318038783E-06  0.00000E+00  9.000E+00
      21     1     1     2   504   503 -1.093818004E+01  7.357144526E+01  1.271912325E+02  1.473431741E+02  4.026831896E-07  0.00000E+00  9.000E+00
      21     1     1     2   505   504 -2.080078977E+01 -6.415075249E+01  4.155337845E+02  4.209706854E+02  3.729699475E-06  0.00000E+00  9.000E+00
      21     1     1     2   503   512  2.299464061E+01  1.832707501E+01 -1.257833950E+02  1.291746788E+02  5.513860679E-06  0.00000E+00  9.000E+00
      21     1     1     2   512   502  8.744329199E+00 -2.774776778E+01 -1.633457035E+02  1.659163065E+02  5.792970779E-06  0.00000E+00  9.000E+00
#rwgt            1         276  -86344.980503038532                1      299274           0
</event>
<event>
      6  10001  9.49812E+09  4.47191E+00 -1.00000E+00  2.52549E-01
      21    -1     0     0   502   501  0.000000000E+00  0.000000000E+00  4.117709590E+01  4.117709590E+01  2.635581323E-07  0.00000E+00  9.000E+00
       1    -1     0     0   501     0  0.000000000E+00  0.000000000E+00 -7.667156634E+00  7.667156634E+00  3.179888430E-08  0.00000E+00  9.000E+00
      21     1     1     2   504   511 -3.342770096E-01  6.694754284E+00  1.414567779E+00  6.850728286E+00  4.092270572E-07  0.00000E+00  9.000E+00
      21     1     1     2   502   503  3.319525278E+00 -1.372250062E+01  2.308085862E+01  2.705646514E+01  3.912968562E-07  0.00000E+00  9.000E+00
      21     1     1     2   503   504  7.761738064E-01  3.926207866E+00  9.214983929E+00  1.004656572E+01  1.221278467E-07  0.00000E+00  9.000E+00
       1     1     1     2   511     0 -3.761422074E+00  3.101538474E+00 -2.004710569E-01  4.890493387E+00  3.300000000E-01  0.00000E+00  9.000E+00
#rwgt            1         222   20912.716929502592                1      303599           0
</event>
<event>
      6  10001  4.48872E+12  1.14145E+00 -1.00000E+00  5.64575E-01
      21    -1     0     0   505   501  0.000000000E+00  0.000000000E+00  3.406713674E+02  3.406713674E+02  1.453459500E-06  0.00000E+00  9.000E+00
      21    -1     0     0   501   502  0.000000000E+00  0.000000000E+00 -7.984850173E+00  7.984850173E+00  3.140238560E-08  0.00000E+00  9.000E+00
      21     1     1     2   503   502  2.693117123E+00 -5.441947090E-01 -7.736779004E+00  8.210163036E+00  2.045311040E-07  0.00000E+00  9.000E+00
      21     1     1     2   505   504 -6.305945306E-01 -8.364787956E-01  1.723884966E+02  1.723916794E+02  1.103806321E-06  0.00000E+00  9.000E+00
      21     1     1     2   512   503 -2.739768651E-01  1.786914020E-01  4.095523160E+01  4.095653781E+01  1.912603599E-06  0.00000E+00  9.000E+00
      21     1     1     2   504   512 -1.788545727E+00  1.201982103E+00  1.270795680E+02  1.270978373E+02  5.678892712E-06  0.00000E+00  9.000E+00
#rwgt            1         276   11198565.234816631                1      303876           0
</event>
<event>
      5  10001  1.40130E+08  8.94427E-01 -1.00000E+00  1.18001E-01
      21    -1     0     0   502   503  0.000000000E+00  0.000000000E+00  2.061075662E+02  2.061075662E+02  6.507641397E-07  0.00000E+00  9.000E+00
      -3    -1     0     0     0   502  0.000000000E+00  0.000000000E+00 -8.891227096E+00  8.891227096E+00  7.948954894E-08  0.00000E+00  9.000E+00
      -3     1     1     2     0   501 -1.911677257E+01 -2.017262432E+01  6.547186937E+01  7.112806369E+01  5.000000000E-01  0.00000E+00  9.000E+00
       5     1     1     2   501     0  3.308062662E+01  2.304338408E+00  6.351212513E+01  7.180855012E+01  4.800000000E+00  0.00000E+00  9.000E+00
      -5     1     1     2     0   503 -1.396385405E+01  1.786828591E+01  6.823234461E+01  7.206217948E+01  4.800000000E+00  0.00000E+00  9.000E+00
#rwgt            1         251   7.9280243348145891                1      313719           0
</event>
<event>
      6  10001 -1.81692E+08  2.23001E+01 -1.00000E+00  1.62557E-01
      21    -1     0     0   502   503  0.000000000E+00  0.000000000E+00  1.722422565E+02  1.722422565E+02  1.096328603E-06  0.00000E+00  9.000E+00
      21    -1     0     0   501   502  0.000000000E+00  0.000000000E+00 -1.714092599E+01  1.714092599E+01  1.619080280E-07  0.00000E+00  9.000E+00
       1     1     1     2   501     0 -1.114963980E+01  1.496797718E+00 -6.150218423E+00  1.282532486E+01  3.300000000E-01  0.00000E+00  9.000E+00
      21     1     1     2   511   504  2.008601571E+01 -2.685445817E+01  4.462100960E+01  5.581795811E+01  4.711994591E-08  0.00000E+00  9.000E+00
      21     1     1     2   504   503 -8.292367845E+00  1.410688215E+01  9.446652811E+01  9.587331444E+01  1.313235736E-06  0.00000E+00  9.000E+00
      -1     1     1     2     0   511 -6.440080587E-01  1.125077831E+01  2.216401119E+01  2.486658502E+01  3.300000000E-01  0.00000E+00  9.000E+00
#rwgt            1         271  -14453.768249326249                1      314063           0
</event>
</LesHouchesEvents>
 #Random number generator exit values:            1        314532             0
