<LesHouchesEvents version="3.0">
<header>
<!--
#*********************************************************************
#                                                                    *
#                        MadGraph5_aMC@NLO                           *
#                                                                    *
#                           Going Beyond                             *
#                                                                    *
#                   http://madgraph.hep.uiuc.edu                     *
#                   http://madgraph.phys.ucl.ac.be                   *
#                   http://amcatnlo.cern.ch                          *
#                                                                    *
#                     The MadGraph5_aMC@NLO team                     *
#                                                                    *
#....................................................................*
#                                                                    *
# This file contains all the information necessary to reproduce      *
# the events generated:                                              *
#                                                                    *
# 1. software version                                                *
# 2. proc_card          : code generation info including model       *
# 3. param_card         : model primary parameters in the LH format  *
# 4. run_card           : running parameters (collider and cuts)     *
# 5. pythia_card        : present only if pythia has been run        *
# 6. pgs_card           : present only if pgs has been run           *
# 7. delphes_cards      : present only if delphes has been run       *
#                                                                    *
#                                                                    *
#*********************************************************************
-->
<MGVersion>
#3.4.2
</MGVersion>
<MG5ProcCard>
<![CDATA[
#************************************************************
#*                     MadGraph5_aMC@NLO                    *
#*                                                          *
#*                *                       *                 *
#*                  *        * *        *                   *
#*                    * * * * 5 * * * *                     *
#*                  *        * *        *                   *
#*                *                       *                 *
#*                                                          *
#*                                                          *
#*         VERSION 3.4.2                 2023-01-20         *
#*                                                          *
#*    The MadGraph5_aMC@NLO Development Team - Find us at   *
#*    https://server06.fynu.ucl.ac.be/projects/madgraph     *
#*                                                          *
#************************************************************
#*                                                          *
#*               Command File for MadGraph5_aMC@NLO         *
#*                                                          *
#*     run as ./bin/mg5_aMC  filename                       *
#*                                                          *
#************************************************************
set group_subprocesses Auto
set ignore_six_quark_processes False
set low_mem_multicore_nlo_generation False
set complex_mass_scheme False
set include_lepton_initiated_processes False
set gauge unitary
set loop_optimized_output True
set loop_color_flows False
set max_npoint_for_channel 0
set default_unset_couplings 99
set max_t_for_channel 99
set zerowidth_tchannel True
set nlo_mixed_expansion True
import model sm
define p = g u c d s u~ c~ d~ s~
define j = g u c d s u~ c~ d~ s~
define l+ = e+ mu+
define l- = e- mu-
define vl = ve vm vt
define vl~ = ve~ vm~ vt~
import model --modelname idm
generate p p > j zp, (zp > chi2 chi1, chi2 > l+ l- chi1)
help
output pp-idm
]]>
</MG5ProcCard>
<MGProcCard>
#*********************************************************************
#                        MadGraph/MadEvent                           *
#                   http://madgraph.hep.uiuc.edu                     *
#                                                                    *
#                          proc_card.dat                             *
#*********************************************************************
#                                                                    *
#            This Files is generated by MADGRAPH 5                   *
#                                                                    *
# WARNING: This Files is generated for MADEVENT (compatibility issue)*
#          This files is NOT a valid MG4 proc_card.dat               *
#          Running this in MG4 will NEVER reproduce the result of MG5*
#                                                                    *
#*********************************************************************
#*********************************************************************
# Process(es) requested : mg2 input                                  *
#*********************************************************************
# Begin PROCESS # This is TAG. Do not modify this line
p p > j zp , (zp > chi2 chi1 , chi2 > l+ l- chi1)           #Process
# Be carefull the coupling are here in MG5 convention

end_coup           # End the couplings input

done               # this tells MG there are no more procs
# End PROCESS  # This is TAG. Do not modify this line
#*********************************************************************
# Model information                                                  *
#*********************************************************************
# Begin MODEL  # This is TAG. Do not modify this line
idm
# End   MODEL  # This is TAG. Do not modify this line
#*********************************************************************
# Start multiparticle definitions                                    *
#*********************************************************************
# Begin MULTIPARTICLES # This is TAG. Do not modify this line

# End  MULTIPARTICLES # This is TAG. Do not modify this line
</MGProcCard>
<MGRunCard>
<![CDATA[
#*********************************************************************
#                       MadGraph5_aMC@NLO                            *
#                                                                    *
#                     run_card.dat MadEvent                          *
#                                                                    *
#  This file is used to set the parameters of the run.               *
#                                                                    *
#  Some notation/conventions:                                        *
#                                                                    *
#   Lines starting with a '# ' are info or comments                  *
#                                                                    *
#   mind the format:   value    = variable     ! comment             *
#                                                                    *
#   To display more options, you can type the command:               *
#      update to_full                                                *
#*********************************************************************
#
#*********************************************************************
# Tag name for the run (one word)                                    *
#*********************************************************************
  tag_1     = run_tag ! name of the run
#*********************************************************************
# Number of events and rnd seed                                      *
# Warning: Do not generate more than 1M events in a single run       *
#*********************************************************************
  10000 = nevents ! Number of unweighted events requested
 21 = iseed   ! rnd seed (0=assigned automatically=default))
#*********************************************************************
# Collider type and energy                                           *
# lpp: 0=No PDF, 1=proton, -1=antiproton, 2=elastic photon of proton,*
#             +/-3=PDF of electron/positron beam                     *
#             +/-4=PDF of muon/antimuon beam                         *
#*********************************************************************
     1        = lpp1    ! beam 1 type
     1        = lpp2    ! beam 2 type
     6500.0     = ebeam1  ! beam 1 total energy in GeV
     6500.0     = ebeam2  ! beam 2 total energy in GeV
# To see polarised beam options: type "update beam_pol"

#*********************************************************************
# PDF CHOICE: this automatically fixes alpha_s and its evol.         *
# pdlabel: lhapdf=LHAPDF (installation needed) [1412.7420]           *
#          iww=Improved Weizsaecker-Williams Approx.[hep-ph/9310350] *
#          eva=Effective W/Z/A Approx.       [21yy.zzzzz]            *
#          none=No PDF, same as lhapdf with lppx=0                   *
#*********************************************************************
     nn23lo1    = pdlabel1     ! PDF type for beam #1
     nn23lo1    = pdlabel2     ! PDF type for beam #2
     230000    = lhaid     ! if pdlabel=lhapdf, this is the lhapdf number
# To see heavy ion options: type "update ion_pdf"
#*********************************************************************
# Renormalization and factorization scales                           *
#*********************************************************************
 False = fixed_ren_scale  ! if .true. use fixed ren scale
 False = fixed_fac_scale1  ! if .true. use fixed fac scale for beam 1
 False = fixed_fac_scale2  ! if .true. use fixed fac scale for beam 2
 91.188  = scale            ! fixed ren scale
 91.188  = dsqrt_q2fact1    ! fixed fact scale for pdf1
 91.188  = dsqrt_q2fact2    ! fixed fact scale for pdf2
 -1 = dynamical_scale_choice ! Choose one of the preselected dynamical choices
 1.0  = scalefact        ! scale factor for event-by-event scales


#*********************************************************************
# Type and output format
#*********************************************************************
  False     = gridpack  !True = setting up the grid pack
  -1.0 = time_of_flight ! threshold (in mm) below which the invariant livetime is not written (-1 means not written)
  average =  event_norm       ! average/sum. Normalization of the weight in the LHEF
# To see MLM/CKKW  merging options: type "update MLM" or "update CKKW"

#*********************************************************************
#
#*********************************************************************
# Phase-Space Optimization strategy (basic options)
#*********************************************************************
   0  = nhel          ! using helicities importance sampling or not.
                             ! 0: sum over helicity, 1: importance sampling
   2  = sde_strategy  ! default integration strategy (hep-ph/2021.00773)
                             ! 1 is old strategy (using amp square)
			     ! 2 is new strategy (using only the denominator)
# To see advanced option for Phase-Space optimization: type "update psoptim"
#*********************************************************************
# Generation bias, check the wiki page below for more information:   *
#  'cp3.irmp.ucl.ac.be/projects/madgraph/wiki/LOEventGenerationBias' *
#*********************************************************************
 None = bias_module  ! Bias type of bias, [None, ptj_bias, -custom_folder-]
 {} = bias_parameters ! Specifies the parameters of the module.
#
#*******************************
# Parton level cuts definition *
#*******************************
  0.0  = dsqrt_shat ! minimal shat for full process
#
#
#*********************************************************************
# BW cutoff (M+/-bwcutoff*Gamma) ! Define on/off-shell for "$" and decay
#*********************************************************************
  15.0  = bwcutoff      ! (M+/-bwcutoff*Gamma)
 #*********************************************************************
 # Apply pt/E/eta/dr/mij/kt_durham cuts on decay products or not
 # (note that etmiss/ptll/ptheavy/ht/sorted cuts always apply)
 #*********************************************************************
   False  = cut_decays    ! Cut decay products
#*********************************************************************
# Standard Cuts                                                      *
#*********************************************************************
# Minimum and maximum pt's (for max, -1 means no cut)                *
#*********************************************************************
 20.0  = ptj       ! minimum pt for the jets
 10.0  = ptl       ! minimum pt for the charged leptons
 -1.0  = ptjmax    ! maximum pt for the jets
 -1.0  = ptlmax    ! maximum pt for the charged leptons
 {} = pt_min_pdg ! pt cut for other particles (use pdg code). Applied on particle and anti-particle
 {}	= pt_max_pdg ! pt cut for other particles (syntax e.g. {6: 100, 25: 50})
#
# For display option for energy cut in the partonic center of mass frame type 'update ecut'
#
#*********************************************************************
# Maximum and minimum absolute rapidity (for max, -1 means no cut)   *
#*********************************************************************
 5.0 = etaj    ! max rap for the jets
 2.5  = etal    ! max rap for the charged leptons
 0.0  = etalmin ! main rap for the charged leptons
 {} = eta_min_pdg ! rap cut for other particles (use pdg code). Applied on particle and anti-particle
 {} = eta_max_pdg ! rap cut for other particles (syntax e.g. {6: 2.5, 23: 5})
#*********************************************************************
# Minimum and maximum DeltaR distance                                *
#*********************************************************************
 0.4 = drll    ! min distance between leptons
 0.4 = drjl    ! min distance between jet and lepton
 -1.0  = drllmax ! max distance between leptons
 -1.0  = drjlmax ! max distance between jet and lepton
#*********************************************************************
# Minimum and maximum invariant mass for pairs                       *
#*********************************************************************
 0.0   = mmll    ! min invariant mass of l+l- (same flavour) lepton pair
 -1.0  = mmllmax ! max invariant mass of l+l- (same flavour) lepton pair
 {} = mxx_min_pdg ! min invariant mass of a pair of particles X/X~ (e.g. {6:250})
 {'default': False} = mxx_only_part_antipart ! if True the invariant mass is applied only
                       ! to pairs of particle/antiparticle and not to pairs of the same pdg codes.
 #*********************************************************************
 # Minimum and maximum invariant mass for all letpons                 *
 #*********************************************************************
 0.0   = mmnl    ! min invariant mass for all letpons (l+- and vl)
 -1.0  = mmnlmax ! max invariant mass for all letpons (l+- and vl)
 #*********************************************************************
 # Minimum and maximum pt for 4-momenta sum of leptons / neutrino     *
 #  for pair of lepton includes only same flavor, opposite charge
 #*********************************************************************
 0.0   = ptllmin  ! Minimum pt for 4-momenta sum of leptons(l and vl)
 -1.0  = ptllmax  ! Maximum pt for 4-momenta sum of leptons(l and vl)
#*********************************************************************
# Inclusive cuts                                                     *
#*********************************************************************
 0.0  = ptheavy   ! minimum pt for at least one heavy final state
 0.0  = xptl ! minimum pt for at least one charged lepton
 #*********************************************************************
 # Control the pt's of leptons sorted by pt                           *
 #*********************************************************************
 0.0   = ptl1min ! minimum pt for the leading lepton in pt
 0.0   = ptl2min ! minimum pt for the second lepton in pt
 -1.0  = ptl1max ! maximum pt for the leading lepton in pt
 -1.0  = ptl2max ! maximum pt for the second lepton in pt
#*********************************************************************
# maximal pdg code for quark to be considered as a light jet         *
# (otherwise b cuts are applied)                                     *
#*********************************************************************
 4 = maxjetflavor    ! Maximum jet pdg code
#*********************************************************************
#
#*********************************************************************
# Store info for systematics studies                                 *
# WARNING: Do not use for interference type of computation           *
#*********************************************************************
   True  = use_syst      ! Enable systematics studies
#
systematics = systematics_program ! none, systematics [python], SysCalc [depreceted, C++]
['--mur=0.5,1,2', '--muf=0.5,1,2', '--pdf=errorset'] = systematics_arguments ! see: https://cp3.irmp.ucl.ac.be/projects/madgraph/wiki/Systematics#Systematicspythonmodule
]]>
</MGRunCard>
<slha>
######################################################################
## PARAM_CARD AUTOMATICALY GENERATED BY MG5                       ####
######################################################################
###################################
## INFORMATION FOR CKMBLOCK
###################################
BLOCK CKMBLOCK #
      1 4.880000e-01 # cabi
###################################
## INFORMATION FOR DM
###################################
BLOCK DM #
      1 1.000000e+00 # mchi
      2 1.000000e-02 # dmchi
###################################
## INFORMATION FOR GAUGEMASS
###################################
BLOCK GAUGEMASS #
      1 9.118800e+01 # mzinput
      2 8.041900e+01 # mwinput
###################################
## INFORMATION FOR HIDDEN
###################################
BLOCK HIDDEN #
      1 2.000000e+01 # mzdinput
      2 2.000000e+02 # mhsinput
      3 1.000000e-02 # epsilon
      4 1.000000e-09 # kap
      5 1.279000e+02 # axm1
###################################
## INFORMATION FOR HIGGS
###################################
BLOCK HIGGS #
      1 1.250000e+02 # mhinput
###################################
## INFORMATION FOR MASS
###################################
BLOCK MASS #
      4 1.420000e+00 # mc
      5 4.700000e+00 # mb
      6 1.743000e+02 # mt
      11 5.110000e-04 # me
      13 1.057000e-01 # mm
      15 1.777000e+00 # mta
      1 0.000000e+00 # d : 0.0
      2 0.000000e+00 # u : 0.0
      3 0.000000e+00 # s : 0.0
      12 0.000000e+00 # ve : 0.0
      14 0.000000e+00 # vm : 0.0
      16 0.000000e+00 # vt : 0.0
      21 0.000000e+00 # g : 0.0
      22 0.000000e+00 # a : 0.0
      23 9.118800e+01 # z : mzinput
      24 8.041900e+01 # w+ : mwinput
      25 1.250000e+02 # h : mhinput
      35 2.000000e+02 # hs : mhsinput
      1023 2.000000e+01 # zp : mzdinput
      1000022 9.950000e-01 # chi1 : -dmchi/2. + mchi
      1000023 1.005000e+00 # chi2 : dmchi/2. + mchi
###################################
## INFORMATION FOR SMINPUTS
###################################
BLOCK SMINPUTS #
      1 2.250000e-01 # swsqsm
      2 1.279000e+02 # aewm1
      3 1.300000e-01 # gf (note that parameter not used if you use a pdf set)
      4 1.180000e-01 # as
###################################
## INFORMATION FOR YUKAWA
###################################
BLOCK YUKAWA #
      4 1.420000e+00 # ymc
      5 4.700000e+00 # ymb
      6 1.743000e+02 # ymt
      11 5.110000e-04 # ymel
      13 1.057000e-01 # ymmu
      15 1.777000e+00 # ymtau
###################################
## INFORMATION FOR DECAY
###################################
DECAY 6 1.508336e+00 # wt
DECAY 23 2.441404e+00 # wz
DECAY 24 2.047600e+00 # ww
DECAY 25 2.822990e-03 # wh
DECAY 35 5.237950e+00 # whs
DECAY 1023 8.252000e-04 # wzp
DECAY 1000023 1.000000e-03 # wchi2
DECAY 1 0.000000e+00 # d : 0.0
DECAY 2 0.000000e+00 # u : 0.0
DECAY 3 0.000000e+00 # s : 0.0
DECAY 4 0.000000e+00 # c : 0.0
DECAY 5 0.000000e+00 # b : 0.0
DECAY 11 0.000000e+00 # e- : 0.0
DECAY 12 0.000000e+00 # ve : 0.0
DECAY 13 0.000000e+00 # m- : 0.0
DECAY 14 0.000000e+00 # vm : 0.0
DECAY 15 0.000000e+00 # tt- : 0.0
DECAY 16 0.000000e+00 # vt : 0.0
DECAY 21 0.000000e+00 # g : 0.0
DECAY 22 0.000000e+00 # a : 0.0
DECAY 1000022 0.000000e+00 # chi1 : 0.0
###################################
## INFORMATION FOR QNUMBERS 1000022
###################################
BLOCK QNUMBERS 1000022 #  chi1
      1 0 # 3 times electric charge
      2 2 # number of spin states (2s+1)
      3 1 # colour rep (1: singlet, 3: triplet, 8: octet)
      4 0 # particle/antiparticle distinction (0=own anti)
###################################
## INFORMATION FOR QNUMBERS 1000023
###################################
BLOCK QNUMBERS 1000023 #  chi2
      1 0 # 3 times electric charge
      2 2 # number of spin states (2s+1)
      3 1 # colour rep (1: singlet, 3: triplet, 8: octet)
      4 0 # particle/antiparticle distinction (0=own anti)
###################################
## INFORMATION FOR QNUMBERS 1023
###################################
BLOCK QNUMBERS 1023 #  zp
      1 0 # 3 times electric charge
      2 3 # number of spin states (2s+1)
      3 1 # colour rep (1: singlet, 3: triplet, 8: octet)
      4 0 # particle/antiparticle distinction (0=own anti)
###################################
## INFORMATION FOR QNUMBERS 35
###################################
BLOCK QNUMBERS 35 #  hs
      1 0 # 3 times electric charge
      2 1 # number of spin states (2s+1)
      3 1 # colour rep (1: singlet, 3: triplet, 8: octet)
      4 0 # particle/antiparticle distinction (0=own anti)
</slha>
<MGGenerationInfo>
#  Number of Events        :       10000
#  Integrated weight (pb)  :       2.894731552e-19
</MGGenerationInfo>
</header>
<init>
2212 2212 6.500000e+03 6.500000e+03 0 0 247000 247000 -4 1
2.894732e-19 9.713655e-22 2.894732e-19 1
<generator name='MadGraph5_aMC@NLO' version='3.4.2'>please cite 1405.0301 </generator>
</init>
<event>
 9      1 +2.8947316e-19 2.92697900e+01 7.81860800e-03 1.60630300e-01
        2 -1    0    0  502    0 -0.0000000000e+00 +0.0000000000e+00 +1.7028511987e+03 1.7028511987e+03 0.0000000000e+00 0.0000e+00 -1.0000e+00
       21 -1    0    0  501  502 +0.0000000000e+00 -0.0000000000e+00 -3.7825985357e-01 3.7825985357e-01 0.0000000000e+00 0.0000e+00 1.0000e+00
     1023  2    1    2    0    0 +1.4426229911e+01 +1.5767654873e+01 +1.0406895153e+03 1.0411010460e+03 1.9999641153e+01 0.0000e+00 0.0000e+00
  1000023  2    3    3    0    0 -2.2517621103e+00 +8.4484873258e+00 +1.7673551429e+02 1.7695451239e+02 1.0050246371e+00 0.0000e+00 0.0000e+00
        2  1    1    2  501    0 -1.4426229911e+01 -1.5767654873e+01 +6.6178342358e+02 6.6212841260e+02 0.0000000000e+00 0.0000e+00 -1.0000e+00
      -11  1    4    4    0    0 -1.1407693169e-02 +3.3848774203e-02 +7.6380866400e-01 7.6464358449e-01 5.1100000000e-04 0.0000e+00 -1.0000e+00
       11  1    4    4    0    0 -1.9363548681e-02 +4.7647975380e-02 +1.0059949935e+00 1.0073090214e+00 5.1100000000e-04 0.0000e+00 1.0000e+00
  1000022  1    4    4    0    0 -2.2209908685e+00 +8.3669905763e+00 +1.7496571063e+02 1.7518255979e+02 9.9500000000e-01 0.0000e+00 -1.0000e+00
  1000022  1    3    3    0    0 +1.6677992021e+01 +7.3191675471e+00 +8.6395400101e+02 8.6414653359e+02 9.9500000000e-01 0.0000e+00 1.0000e+00
<mgrwt>
<rscale>  1 0.29269792E+02</rscale>
<asrwt>0</asrwt>
<pdfrwt beam="2">  1       21 0.58195187E-04 0.29269792E+02</pdfrwt>
<pdfrwt beam="1">  1        2 0.26197097E+00 0.29269792E+02</pdfrwt>
<totfact> 0.30128816E+07</totfact>
</mgrwt>
</event>
<event>
 9      1 +2.8947316e-19 4.77144900e+01 7.81860800e-03 1.45807400e-01
        2 -1    0    0  502    0 -0.0000000000e+00 +0.0000000000e+00 +1.7766174921e+03 1.7766174921e+03 0.0000000000e+00 0.0000e+00 1.0000e+00
       21 -1    0    0  501  502 +0.0000000000e+00 -0.0000000000e+00 -1.8417772117e+00 1.8417772117e+00 0.0000000000e+00 0.0000e+00 1.0000e+00
     1023  2    1    2    0    0 +3.7756043830e+01 -2.1240471420e+01 +1.4526780173e+03 1.4534614181e+03 1.9999890422e+01 0.0000e+00 0.0000e+00
  1000023  2    3    3    0    0 +1.1492718045e+01 -4.8257597223e+00 +1.9438065773e+02 1.9478257104e+02 1.0194869415e+00 0.0000e+00 0.0000e+00
        2  1    1    2  501    0 -3.7756043830e+01 +2.1240471420e+01 +3.2209769766e+02 3.2499785123e+02 0.0000000000e+00 0.0000e+00 1.0000e+00
      -11  1    4    4    0    0 +3.5242812801e-02 -1.3882346605e-02 +6.6301789273e-01 6.6409921142e-01 5.1100000000e-04 0.0000e+00 1.0000e+00
       11  1    4    4    0    0 +2.6289240486e-01 -9.7677974888e-02 +4.5957278280e+00 4.6042771347e+00 5.1100000000e-04 0.0000e+00 -1.0000e+00
  1000022  1    4    4    0    0 +1.1194582828e+01 -4.7141994008e+00 +1.8912191201e+02 1.8951419469e+02 9.9500000000e-01 0.0000e+00 -1.0000e+00
  1000022  1    3    3    0    0 +2.6263325785e+01 -1.6414711698e+01 +1.2582973595e+03 1.2586788471e+03 9.9500000000e-01 0.0000e+00 1.0000e+00
<mgrwt>
<rscale>  1 0.47714485E+02</rscale>
<asrwt>0</asrwt>
<pdfrwt beam="2">  1       21 0.28335176E-03 0.47714485E+02</pdfrwt>
<pdfrwt beam="1">  1        2 0.27332440E+00 0.47714485E+02</pdfrwt>
<totfact> 0.30233093E+06</totfact>
</mgrwt>
</event>
<event>
 9      1 +2.8947316e-19 3.36000300e+01 7.81860800e-03 1.56139600e-01
       -4 -1    0    0    0  501 -0.0000000000e+00 +0.0000000000e+00 +8.4456129567e+02 8.4456248942e+02 1.4200000000e+00 0.0000e+00 1.0000e+00
       21 -1    0    0  501  502 +0.0000000000e+00 -0.0000000000e+00 -1.0935453512e+00 1.0935453512e+00 0.0000000000e+00 0.0000e+00 1.0000e+00
     1023  2    1    2    0    0 +2.1685363787e+01 -1.6084252307e+01 +4.9766647154e+02 4.9879943764e+02 2.0000097896e+01 0.0000e+00 0.0000e+00
  1000023  2    3    3    0    0 +1.7595998184e+00 -1.3035219424e+01 +1.6917216706e+02 1.6968573271e+02 1.0062999230e+00 0.0000e+00 0.0000e+00
       -4  1    1    2    0  502 -2.1685363787e+01 +1.6084252307e+01 +3.4580127877e+02 3.4685659714e+02 1.4200000000e+00 0.0000e+00 1.0000e+00
      -11  1    4    4    0    0 -3.6466575054e-04 -5.0040297779e-03 +7.3453480937e-02 7.3626410193e-02 5.1100000000e-04 0.0000e+00 1.0000e+00
       11  1    4    4    0    0 +2.1359406984e-02 -1.0384631249e-01 +1.4236639837e+00 1.4276062765e+00 5.1100000000e-04 0.0000e+00 1.0000e+00
  1000022  1    4    4    0    0 +1.7386050772e+00 -1.2926369082e+01 +1.6767504960e+02 1.6818450002e+02 9.9500000000e-01 0.0000e+00 -1.0000e+00
  1000022  1    3    3    0    0 +1.9925763968e+01 -3.0490328832e+00 +3.2849430448e+02 3.2911370493e+02 9.9500000000e-01 0.0000e+00 1.0000e+00
<mgrwt>
<rscale>  1 0.33600031E+02</rscale>
<asrwt>0</asrwt>
<pdfrwt beam="2">  1       21 0.16823847E-03 0.33600031E+02</pdfrwt>
<pdfrwt beam="1">  1       -4 0.13000296E+00 0.33600031E+02</pdfrwt>
<totfact> 0.74839512E+05</totfact>
</mgrwt>
</event>
<event>
 9      1 +2.8947316e-19 3.34886000e+01 7.81860800e-03 1.56244700e-01
       21 -1    0    0  501  502 +0.0000000000e+00 +0.0000000000e+00 +1.4066024106e+01 1.4066024106e+01 0.0000000000e+00 0.0000e+00 1.0000e+00
       -4 -1    0    0    0  501 -0.0000000000e+00 -0.0000000000e+00 -1.0081956985e+02 1.0082956940e+02 1.4200000000e+00 0.0000e+00 1.0000e+00
     1023  2    1    2    0    0 -7.9071068936e+00 +2.5670146778e+01 -8.0632154765e+01 8.7309970388e+01 2.0000194303e+01 0.0000e+00 0.0000e+00
  1000023  2    3    3    0    0 -5.7788190011e-01 +5.6618516854e+00 -4.7853887795e+01 4.8201733122e+01 1.0109336741e+00 0.0000e+00 0.0000e+00
       -4  1    1    2    0  502 +7.9071068936e+00 -2.5670146778e+01 -6.1213909796e+00 2.7585623114e+01 1.4200000000e+00 0.0000e+00 1.0000e+00
      -11  1    4    4    0    0 -2.0527914896e-03 +2.3902986544e-02 -1.4890080786e-01 1.5082200907e-01 5.1100000000e-04 0.0000e+00 1.0000e+00
       11  1    4    4    0    0 -5.9633870897e-03 +7.8295797902e-02 -6.0809482921e-01 6.1314384640e-01 5.1100000000e-04 0.0000e+00 -1.0000e+00
  1000022  1    4    4    0    0 -5.6986572153e-01 +5.5596529010e+00 -4.7096892158e+01 4.7437767266e+01 9.9500000000e-01 0.0000e+00 1.0000e+00
  1000022  1    3    3    0    0 -7.3292249934e+00 +2.0008295093e+01 -3.2778266970e+01 3.9108237267e+01 9.9500000000e-01 0.0000e+00 -1.0000e+00
<mgrwt>
<rscale>  1 0.33488603E+02</rscale>
<asrwt>0</asrwt>
<pdfrwt beam="1">  1       21 0.21640037E-02 0.33488603E+02</pdfrwt>
<pdfrwt beam="2">  1       -4 0.15516986E-01 0.33488603E+02</pdfrwt>
<totfact> 0.10417397E+06</totfact>
</mgrwt>
</event>
<event>
 9      1 +2.8947316e-19 4.10486200e+01 7.81860800e-03 1.50063400e-01
       21 -1    0    0  501  502 +0.0000000000e+00 +0.0000000000e+00 +6.7749198462e+01 6.7749198462e+01 0.0000000000e+00 0.0000e+00 1.0000e+00
        1 -1    0    0  502    0 -0.0000000000e+00 -0.0000000000e+00 -2.4753783965e+01 2.4753783965e+01 0.0000000000e+00 0.0000e+00 1.0000e+00
     1023  2    1    2    0    0 -3.5311917682e+01 +6.1684915217e+00 +6.8862921126e+00 4.1622234226e+01 2.0000188622e+01 0.0000e+00 0.0000e+00
  1000023  2    3    3    0    0 -2.8438151167e+01 +3.7368725118e+00 +1.3510425268e+01 3.1721193768e+01 1.0049304054e+00 0.0000e+00 0.0000e+00
        1  1    1    2  501    0 +3.5311917682e+01 -6.1684915217e+00 +3.6109122384e+01 5.0880748200e+01 0.0000000000e+00 0.0000e+00 1.0000e+00
      -11  1    4    4    0    0 -1.2600737806e-01 +1.3813318268e-02 +5.3595373261e-02 1.3762773065e-01 5.1100000000e-04 0.0000e+00 1.0000e+00
       11  1    4    4    0    0 -1.6313592700e-01 +1.9264831514e-02 +7.8191364362e-02 1.8193024760e-01 5.1100000000e-04 0.0000e+00 -1.0000e+00
  1000022  1    4    4    0    0 -2.8149007862e+01 +3.7037943620e+00 +1.3378638531e+01 3.1401635789e+01 9.9500000000e-01 0.0000e+00 1.0000e+00
  1000022  1    3    3    0    0 -6.8737665147e+00 +2.4316190099e+00 -6.6241331555e+00 9.9010404589e+00 9.9500000000e-01 0.0000e+00 -1.0000e+00
<mgrwt>
<rscale>  1 0.41048622E+02</rscale>
<asrwt>0</asrwt>
<pdfrwt beam="1">  1       21 0.10422953E-01 0.41048622E+02</pdfrwt>
<pdfrwt beam="2">  1        1 0.38082745E-02 0.41048622E+02</pdfrwt>
<totfact> 0.15513037E+06</totfact>
</mgrwt>
</event>
<event>
 9      1 +2.8947316e-19 3.25723800e+01 7.81860800e-03 1.57127900e-01
       -2 -1    0    0    0  501 -0.0000000000e+00 +0.0000000000e+00 +3.1207866342e+01 3.1207866342e+01 0.0000000000e+00 0.0000e+00 -1.0000e+00
       21 -1    0    0  501  502 +0.0000000000e+00 -0.0000000000e+00 -2.7400604945e+01 2.7400604945e+01 0.0000000000e+00 0.0000e+00 -1.0000e+00
     1023  2    1    2    0    0 +7.5626979262e+00 -2.4571166592e+01 -2.9999670938e-01 3.2573759905e+01 2.0000580209e+01 0.0000e+00 0.0000e+00
  1000023  2    3    3    0    0 -6.3775856455e+00 -1.1047013287e+01 +2.1380787641e+00 1.2973543944e+01 1.0155591789e+00 0.0000e+00 0.0000e+00
       -2  1    1    2    0  502 -7.5626979262e+00 +2.4571166592e+01 +4.1072581059e+00 2.6034711382e+01 0.0000000000e+00 0.0000e+00 -1.0000e+00
      -11  1    4    4    0    0 -1.1074318669e-01 -1.9679896016e-01 +4.9706619794e-02 2.3122476790e-01 5.1100000000e-04 0.0000e+00 1.0000e+00
       11  1    4    4    0    0 -6.6812404003e-02 -1.2697606520e-01 +2.6511725242e-02 1.4591076437e-01 5.1100000000e-04 0.0000e+00 -1.0000e+00
  1000022  1    4    4    0    0 -6.2000300548e+00 -1.0723238262e+01 +2.0618604191e+00 1.2596408412e+01 9.9500000000e-01 0.0000e+00 1.0000e+00
  1000022  1    3    3    0    0 +1.3940283572e+01 -1.3524153305e+01 -2.4380754735e+00 1.9600215960e+01 9.9500000000e-01 0.0000e+00 -1.0000e+00
<mgrwt>
<rscale>  1 0.32572378E+02</rscale>
<asrwt>0</asrwt>
<pdfrwt beam="2">  1       21 0.42154777E-02 0.32572378E+02</pdfrwt>
<pdfrwt beam="1">  1       -2 0.48012102E-02 0.32572378E+02</pdfrwt>
<totfact> 0.41766001E+06</totfact>
</mgrwt>
</event>
<event>
 9      1 +2.8947316e-19 3.10043100e+01 7.81860800e-03 1.58724500e-01
        2 -1    0    0  502    0 -0.0000000000e+00 +0.0000000000e+00 +8.6757973300e+02 8.6757973300e+02 0.0000000000e+00 0.0000e+00 1.0000e+00
       21 -1    0    0  501  502 +0.0000000000e+00 -0.0000000000e+00 -8.6205094633e-01 8.6205094633e-01 0.0000000000e+00 0.0000e+00 -1.0000e+00
     1023  2    1    2    0    0 -2.3690946628e+01 -2.6373361717e-02 +4.9023024592e+02 4.9120969197e+02 2.0000145655e+01 0.0000e+00 0.0000e+00
  1000023  2    3    3    0    0 -6.2393459275e+00 +4.5197608377e+00 +4.9218225339e+01 4.9827977326e+01 1.0178129754e+00 0.0000e+00 0.0000e+00
        2  1    1    2  501    0 +2.3690946628e+01 +2.6373361717e-02 +3.7648743614e+02 3.7723209198e+02 0.0000000000e+00 0.0000e+00 1.0000e+00
      -11  1    4    4    0    0 -1.5441300080e-02 +1.2386004719e-02 +9.0128774618e-02 9.2278404820e-02 5.1100000000e-04 0.0000e+00 1.0000e+00
       11  1    4    4    0    0 -3.3108181075e-02 +3.1158177590e-02 +2.3437843795e-01 2.3874776854e-01 5.1100000000e-04 0.0000e+00 -1.0000e+00
  1000022  1    4    4    0    0 -6.1907964464e+00 +4.4762166554e+00 +4.8893718127e+01 4.9496951153e+01 9.9500000000e-01 0.0000e+00 -1.0000e+00
  1000022  1    3    3    0    0 -1.7451600701e+01 -4.5461341994e+00 +4.4101202058e+02 4.4138171464e+02 9.9500000000e-01 0.0000e+00 1.0000e+00
<mgrwt>
<rscale>  1 0.31004314E+02</rscale>
<asrwt>0</asrwt>
<pdfrwt beam="2">  1       21 0.13262392E-03 0.31004314E+02</pdfrwt>
<pdfrwt beam="1">  1        2 0.13347311E+00 0.31004314E+02</pdfrwt>
<totfact> 0.25021364E+07</totfact>
</mgrwt>
</event>
<event>
 9      1 +2.8947316e-19 2.83103900e+01 7.81860800e-03 1.61755300e-01
        2 -1    0    0  502    0 -0.0000000000e+00 +0.0000000000e+00 +4.4959700283e+02 4.4959700283e+02 0.0000000000e+00 0.0000e+00 1.0000e+00
       21 -1    0    0  501  502 +0.0000000000e+00 -0.0000000000e+00 -1.7523830440e+00 1.7523830440e+00 0.0000000000e+00 0.0000e+00 1.0000e+00
     1023  2    1    2    0    0 +2.6308185666e+00 +1.9863072042e+01 +3.6578846227e+02 3.6688237560e+02 2.0000389077e+01 0.0000e+00 0.0000e+00
  1000023  2    3    3    0    0 -3.0597881998e+00 +1.6068074214e+01 +3.3146543001e+02 3.3187029794e+02 1.0089851788e+00 0.0000e+00 0.0000e+00
        2  1    1    2  501    0 -2.6308185666e+00 -1.9863072042e+01 +8.2056157513e+01 8.4467010265e+01 0.0000000000e+00 0.0000e+00 1.0000e+00
      -11  1    4    4    0    0 -3.1569758390e-02 +1.4475563293e-01 +2.8931646890e+00 2.8969558197e+00 5.1100000000e-04 0.0000e+00 1.0000e+00
       11  1    4    4    0    0 -3.9974179474e-02 +1.8116931553e-01 +3.7594866861e+00 3.7640617237e+00 5.1100000000e-04 0.0000e+00 -1.0000e+00
  1000022  1    4    4    0    0 -2.9882442620e+00 +1.5742149266e+01 +3.2481277864e+02 3.2520928040e+02 9.9500000000e-01 0.0000e+00 1.0000e+00
  1000022  1    3    3    0    0 +5.6906067665e+00 +3.7949978281e+00 +3.4323032255e+01 3.5012077660e+01 9.9500000000e-01 0.0000e+00 -1.0000e+00
<mgrwt>
<rscale>  1 0.28310394E+02</rscale>
<asrwt>0</asrwt>
<pdfrwt beam="2">  1       21 0.26959775E-03 0.28310394E+02</pdfrwt>
<pdfrwt beam="1">  1        2 0.69168678E-01 0.28310394E+02</pdfrwt>
<totfact> 0.17714695E+07</totfact>
</mgrwt>
</event>
<event>
 9      1 +2.8947316e-19 2.88296200e+02 7.81860800e-03 1.09124200e-01
        1 -1    0    0  502    0 -0.0000000000e+00 +0.0000000000e+00 +7.8065592236e+02 7.8065592236e+02 0.0000000000e+00 0.0000e+00 -1.0000e+00
       21 -1    0    0  501  502 +0.0000000000e+00 -0.0000000000e+00 -2.6616952929e+01 2.6616952929e+01 0.0000000000e+00 0.0000e+00 -1.0000e+00
     1023  2    1    2    0    0 +7.3905695152e+01 -8.8073329830e+01 +1.3860497676e+02 1.8119144086e+02 2.0000886356e+01 0.0000e+00 0.0000e+00
  1000023  2    3    3    0    0 +9.4320700130e+00 -2.3924987776e+01 +2.9666792540e+01 3.9274647868e+01 1.0051869316e+00 0.0000e+00 0.0000e+00
        1  1    1    2  501    0 -7.3905695152e+01 +8.8073329830e+01 +6.1543399267e+02 6.2608143443e+02 0.0000000000e+00 0.0000e+00 -1.0000e+00
      -11  1    4    4    0    0 +1.0353682261e-02 -2.8999645015e-02 +3.0756015019e-02 4.3524380848e-02 5.1100000000e-04 0.0000e+00 1.0000e+00
       11  1    4    4    0    0 +7.3528384694e-02 -1.8397139124e-01 +2.2321134226e-01 2.9845512324e-01 5.1100000000e-04 0.0000e+00 -1.0000e+00
  1000022  1    4    4    0    0 +9.3481879460e+00 -2.3712016740e+01 +2.9412825182e+01 3.8932668364e+01 9.9500000000e-01 0.0000e+00 1.0000e+00
  1000022  1    3    3    0    0 +6.4473625139e+01 -6.4148342054e+01 +1.0893818422e+02 1.4191679299e+02 9.9500000000e-01 0.0000e+00 -1.0000e+00
<mgrwt>
<rscale>  1 0.28829625E+03</rscale>
<asrwt>0</asrwt>
<pdfrwt beam="2">  1       21 0.40949164E-02 0.28829625E+03</pdfrwt>
<pdfrwt beam="1">  1        1 0.12010089E+00 0.28829625E+03</pdfrwt>
<totfact> 0.10052006E+05</totfact>
</mgrwt>
</event>
<event>
 9      1 +2.8947316e-19 2.98387300e+01 7.81860800e-03 1.59987800e-01
       21 -1    0    0  501  502 +0.0000000000e+00 +0.0000000000e+00 +5.9274810913e+01 5.9274810913e+01 0.0000000000e+00 0.0000e+00 1.0000e+00
        2 -1    0    0  502    0 -0.0000000000e+00 -0.0000000000e+00 -1.4381064209e+01 1.4381064209e+01 0.0000000000e+00 0.0000e+00 -1.0000e+00
     1023  2    1    2    0    0 +1.6370805721e+01 -1.4911148979e+01 +8.4500772673e+00 3.1012157109e+01 2.0000110972e+01 0.0000e+00 0.0000e+00
  1000023  2    3    3    0    0 +2.8509722837e+00 -1.3601446387e+01 +1.0217934980e+01 1.7278382575e+01 1.0044512844e+00 0.0000e+00 0.0000e+00
        2  1    1    2  501    0 -1.6370805721e+01 +1.4911148979e+01 +3.6443669437e+01 4.2643718012e+01 0.0000000000e+00 0.0000e+00 -1.0000e+00
      -11  1    4    4    0    0 +4.2709864373e-03 -3.6203210074e-02 +2.5715676166e-02 4.4614693392e-02 5.1100000000e-04 0.0000e+00 -1.0000e+00
       11  1    4    4    0    0 +1.9943575725e-02 -8.3761049279e-02 +5.6548705912e-02 1.0301299360e-01 5.1100000000e-04 0.0000e+00 1.0000e+00
  1000022  1    4    4    0    0 +2.8267577216e+00 -1.3481482128e+01 +1.0135670598e+01 1.7130754888e+01 9.9500000000e-01 0.0000e+00 1.0000e+00
  1000022  1    3    3    0    0 +1.3519833438e+01 -1.3097025923e+00 -1.7678577126e+00 1.3733774534e+01 9.9500000000e-01 0.0000e+00 -1.0000e+00
<mgrwt>
<rscale>  1 0.29838735E+02</rscale>
<asrwt>0</asrwt>
<pdfrwt beam="1">  1       21 0.91192016E-02 0.29838735E+02</pdfrwt>
<pdfrwt beam="2">  1        2 0.22124714E-02 0.29838735E+02</pdfrwt>
<totfact> 0.38710453E+06</totfact>
</mgrwt>
</event>
</LesHouchesEvents>
