<LesHouchesEvents version="3.0">
<!--
file generated with POWHEG-BOX-V2
Input file powheg.input contained:
! Z production parameter
vdecaymode 1      !(1:leptonic decay, 2:muonic decay, 3: tauonic decay,...)

numevts 100    ! number of events to be generated
ih1   1           ! hadron 1 (1 for protons, -1 for antiprotons)
ih2   1           ! hadron 2 (1 for protons, -1 for antiprotons)
ndns1 131         ! pdf set for hadron 1 (mlm numbering)
ndns2 131         ! pdf set for hadron 2 (mlm numbering)
ebeam1 4000d0    ! energy of beam 1
ebeam2 4000d0    ! energy of beam 2
! To be set only if using LHA pdfs
lhans1 21100      ! pdf set for hadron 1 (LHA numbering)
lhans2 21100      ! pdf set for hadron 2 (LHA numbering)
! To be set only if using different pdf sets for the two incoming hadrons
! QCDLambda5  0.25 ! for not equal pdf sets

! Parameters to allow or not the use of stored data
use-old-grid    1 ! if 1 use old grid if file pwggrids.dat is present (<> 1 regenerate)
use-old-ubound  1 ! if 1 use norm of upper bounding function stored in pwgubound.dat, if present; <>

ncall1 10000   ! number of calls for initializing the integration grid
itmx1    5     ! number of iterations for initializing the integration grid
ncall2 10000   ! number of calls for computing the integral and finding upper bound
itmx2    5     ! number of iterations for computing the integral and finding upper bound
foldcsi   1    ! number of folds on csi integration
foldy     1    ! number of folds on  y  integration
foldphi   1    ! number of folds on phi integration
nubound 20000  ! number of bbarra calls to setup norm of upper bounding function
icsimax  1     ! <= 100, number of csi subdivision when computing the upper bounds
iymax    1     ! <= 100, number of y subdivision when computing the upper bounds
xupbound 2d0   ! increase upper bound for radiation generation

! OPTIONAL PARAMETERS

#renscfact  1d0   ! (default 1d0) ren scale factor: muren  = muref * renscfact
#facscfact  1d0   ! (default 1d0) fac scale factor: mufact = muref * facscfact
#bornonly   1      ! (default 0) if 1 do Born only
#smartsig   0      ! (default 1) remember equal amplitudes (0 do not remember)
#ptsqmin    0.8    ! (default 0.8 GeV) minimum pt for generation of radiation
#charmthr   1.5    ! (default 1.5 GeV) charm treshold for gluon splitting
#bottomthr  5.0    ! (default 5.0 GeV) bottom treshold for gluon splitting
testplots  1      ! (default 0, do not) do NLO and PWHG distributions
#charmthrpdf  1.5  ! (default 1.5 GeV) pdf charm treshold
#bottomthrpdf 5.0  ! (default 5.0 GeV) pdf bottom treshold

#iseed    12345    ! initialize random number sequence
#rand1     -1      ! initialize random number sequence
#rand2     -1      ! initialize random number sequence

# Uncomment the following group for paralle runs
#manyseeds 1 ! (default 0) allow for the generation of different statistically independent samples (
#parallelstage 1       ! which stage of parallel run 1..4
#xgriditeration 1      ! which grid iteration when in parallelstage 1
# End group for parallel run



mass_low 50         ! lower limit for dilepton mass
mass_high 1d20      ! upper limit for dilepton mass

# runningscale 0    ! default is 1, true, central scale equal to Z/gamma virtuality, 0 equal to M_Z




# Option for alternative splitting R-> R_s + R_f
# These were study to see the effect on the unphysical negative value of the a0
# angular correlation coefficients
# bornzerodamp 1    ! Turn this on (without this the program behaves as usual)
# new_damp 1        ! R_s = max(0,min(1, R_app/R)), where R_app is the soft collinear approximation
# hnew_damp 0.5     ! if this flag appears together with new_damp 1, then R_app -> R_app * h^2 * m^2
                    ! h is the value of hnew_damp, m is the mass of the vector boson, and pt2 is the
# hdamp 1.0         ! if this flag appears, R_s -> R_s *  h^2 * m^2 / ( h^2 * m^2 + pt2 ), where h i
                    ! The following combination seem to yield a0 consistent with non-negative values
                    ! new_damp 1 + hdamp 0.25; new_damp 1 + hnew_damp 0.5 ;
                    ! Looking at the Bornzerodamp.f routine should clarify all doubts on these optio
                    ! You can experiment with other values. Remember: too small  hnew_damp and/or hd
                    ! check that you get a nice sudakov shape of the vector boson pt.



End of powheg.input content
PDF package: lha
 Random number generator initialized with:     54217137             0             0
-->
<init>
     2212     2212  4.00000E+03  4.00000E+03     -1     -1     -1     -1     -4      1
  1.20536E+03  1.73235E+00  1.00000E+00  10011
</init>
<event>
      6  10011  1.22355E+03  1.54156E+01 -1.00000E+00  1.81256E-01
       2    -1     0     0   511     0  0.000000000E+00  0.000000000E+00  4.018783720E+02  4.018783720E+02  2.989934778E-06  0.00000E+00  9.000E+00
      -2    -1     0     0     0   501  0.000000000E+00  0.000000000E+00 -1.245793266E+01  1.245793266E+01  1.098679277E-07  0.00000E+00  9.000E+00
      23     2     1     2     0     0  5.851072050E+00  1.426204896E+01  1.694595565E+02  1.938358941E+02  9.283410720E+01  0.00000E+00  9.000E+00
      11     1     3     3     0     0  4.332302359E+01  2.737693503E+00  1.344189865E+02  1.412545337E+02  5.109989100E-04  0.00000E+00  9.000E+00
     -11     1     3     3     0     0 -3.747195154E+01  1.152435546E+01  3.504056999E+01  5.258136044E+01  5.109989100E-04  0.00000E+00  9.000E+00
      21     1     1     2   511   501 -5.851072050E+00 -1.426204896E+01  2.199608828E+02  2.205004105E+02  2.493191431E-06  0.00000E+00  9.000E+00
#rwgt            1           7   414.90390766179996         54217137           1           0
</event>
<event>
      6  10011  1.22355E+03  8.65780E+00 -1.00000E+00  2.10019E-01
       5    -1     0     0   501     0  0.000000000E+00  0.000000000E+00  5.951993327E+01  5.951993327E+01  2.163610813E-07  0.00000E+00  9.000E+00
      21    -1     0     0   511   501  0.000000000E+00  0.000000000E+00 -4.234891458E+01  4.234891458E+01  1.533897657E-07  0.00000E+00  9.000E+00
      23     2     1     2     0     0  8.632892834E+00 -6.562410620E-01  2.086914701E+01  9.245430357E+01  8.965109849E+01  0.00000E+00  9.000E+00
      11     1     3     3     0     0  9.196619856E+00 -1.145024963E+01  5.485714710E+01  5.678901850E+01  5.109989100E-04  0.00000E+00  9.000E+00
     -11     1     3     3     0     0 -5.637270220E-01  1.079400857E+01 -3.398800009E+01  3.566528508E+01  5.109989100E-04  0.00000E+00  9.000E+00
       5     1     1     2   511     0 -8.632892834E+00  6.562410620E-01 -3.698128325E+00  9.414544286E+00  0.000000000E+00  0.00000E+00  9.000E+00
#rwgt            1          10   35.210237959761045         54217137          55           0
</event>
<event>
      6  10011  1.22355E+03  3.72676E+00 -1.00000E+00  2.83368E-01
      -1    -1     0     0     0   511  0.000000000E+00  0.000000000E+00  2.090285308E+00  2.090285308E+00  1.681601984E-08  0.00000E+00  9.000E+00
       1    -1     0     0   501     0  0.000000000E+00  0.000000000E+00 -1.095979552E+03  1.095979552E+03  9.380608808E-06  0.00000E+00  9.000E+00
      23     2     1     2     0     0 -2.887854016E+00 -2.355645164E+00 -1.055672410E+03  1.059671701E+03  9.190205175E+01  0.00000E+00  9.000E+00
      11     1     3     3     0     0 -2.233096489E+01  1.428313805E+01 -9.674398029E+02  9.678028995E+02  5.109989100E-04  0.00000E+00  9.000E+00
     -11     1     3     3     0     0  1.944311087E+01 -1.663878322E+01 -8.823260716E+01  9.186880120E+01  5.109989100E-04  0.00000E+00  9.000E+00
      21     1     1     2   501   511  2.887854016E+00  2.355645164E+00 -3.821685681E+01  3.839813680E+01  3.638600024E-07  0.00000E+00  9.000E+00
#rwgt            1           5   479.75225203362345         54217137         203           0
</event>
<event>
      6  10011  1.22355E+03  1.77995E+01 -1.00000E+00  1.75313E-01
       1    -1     0     0   511     0  0.000000000E+00  0.000000000E+00  7.201276630E+00  7.201276630E+00  5.018593760E-08  0.00000E+00  9.000E+00
      -1    -1     0     0     0   501  0.000000000E+00  0.000000000E+00 -4.316003344E+02  4.316003344E+02  2.942531999E-06  0.00000E+00  9.000E+00
      23     2     1     2     0     0  1.627006519E+01 -7.218628107E+00 -3.807328682E+02  3.916469747E+02  9.007226141E+01  0.00000E+00  9.000E+00
      11     1     3     3     0     0 -6.492290670E+00  2.733474563E+01 -2.962131347E+02  2.975425337E+02  5.109989100E-04  0.00000E+00  9.000E+00
     -11     1     3     3     0     0  2.276235586E+01 -3.455337374E+01 -8.451973345E+01  9.410444104E+01  5.109989100E-04  0.00000E+00  9.000E+00
      21     1     1     2   511   501 -1.627006519E+01  7.218628107E+00 -4.366618960E+01  4.715463633E+01  5.979846602E-07  0.00000E+00  9.000E+00
#rwgt            1           6   109.18735363861495         54217137         340           0
</event>
<event>
      6  10011  1.22355E+03  7.55031E+00 -1.00000E+00  2.18304E-01
       2    -1     0     0   501     0  0.000000000E+00  0.000000000E+00  3.267056431E+02  3.267056431E+02  1.505794052E-06  0.00000E+00  9.000E+00
      21    -1     0     0   511   501  0.000000000E+00  0.000000000E+00 -7.927740977E+00  7.927740977E+00  2.805930479E-08  0.00000E+00  9.000E+00
      23     2     1     2     0     0  5.142381322E+00  5.528383640E+00  3.074212132E+02  3.209958808E+02  9.205186624E+01  0.00000E+00  9.000E+00
      11     1     3     3     0     0  1.954243157E+01 -5.543579684E+00  3.010677706E+02  3.017522831E+02  5.109989100E-04  0.00000E+00  9.000E+00
     -11     1     3     3     0     0 -1.440005025E+01  1.107196332E+01  6.353442644E+00  1.924359771E+01  5.109989100E-04  0.00000E+00  9.000E+00
       2     1     1     2   511     0 -5.142381322E+00 -5.528383640E+00  1.135668893E+01  1.363750324E+01  0.000000000E+00  0.00000E+00  9.000E+00
#rwgt            1           7   635.59940124988702         54217137         413           0
</event>
<event>
      6  10011  1.22355E+03  2.42754E+01 -1.00000E+00  1.63766E-01
      21    -1     0     0   501   511  0.000000000E+00  0.000000000E+00  7.544363425E+01  7.544363425E+01  6.687790411E-07  0.00000E+00  9.000E+00
      -4    -1     0     0     0   501  0.000000000E+00  0.000000000E+00 -4.704570663E+01  4.704570663E+01  2.106458547E-07  0.00000E+00  9.000E+00
      23     2     1     2     0     0 -8.147883274E+00 -2.286713631E+01  7.794766476E+00  9.064936327E+01  8.698996926E+01  0.00000E+00  9.000E+00
      11     1     3     3     0     0 -4.471777739E+01 -2.008281165E+01 -9.769983603E+00  4.998451279E+01  5.109989100E-04  0.00000E+00  9.000E+00
     -11     1     3     3     0     0  3.656989412E+01 -2.784324658E+00  1.756475008E+01  4.066485049E+01  5.109989100E-04  0.00000E+00  9.000E+00
      -4     1     1     2     0   511  8.147883274E+00  2.286713631E+01  2.060316114E+01  3.183997761E+01  0.000000000E+00  0.00000E+00  9.000E+00
#rwgt            1           9   56.836086879948304         54217137         529           0
</event>
<event>
      6  10011  1.22355E+03  2.38267E+01 -1.00000E+00  1.64416E-01
      21    -1     0     0   511   501  0.000000000E+00  0.000000000E+00  2.848913665E+01  2.848913665E+01  1.689319816E-07  0.00000E+00  9.000E+00
       1    -1     0     0   501     0  0.000000000E+00  0.000000000E+00 -5.874453779E+02  5.874453779E+02  3.955563388E-06  0.00000E+00  9.000E+00
      23     2     1     2     0     0  2.327876940E+01  5.080296842E+00 -5.776662449E+02  5.856397170E+02  9.331600678E+01  0.00000E+00  9.000E+00
      11     1     3     3     0     0  2.217816862E+01  4.405415956E+01 -4.334087344E+02  4.362061110E+02  5.109989100E-04  0.00000E+00  9.000E+00
     -11     1     3     3     0     0  1.100600786E+00 -3.897386271E+01 -1.442575105E+02  1.494336061E+02  5.109989100E-04  0.00000E+00  9.000E+00
       1     1     1     2   511     0 -2.327876940E+01 -5.080296842E+00  1.871000366E+01  3.029479754E+01  0.000000000E+00  0.00000E+00  9.000E+00
#rwgt            1           5   432.06291296219240         54217137         572           0
</event>
<event>
      6  10011  1.22355E+03  3.60055E+00 -1.00000E+00  2.87548E-01
      -1    -1     0     0     0   501  0.000000000E+00  0.000000000E+00  3.605142688E+02  3.605142688E+02  2.330060315E-06  0.00000E+00  9.000E+00
      21    -1     0     0   501   511  0.000000000E+00  0.000000000E+00 -2.637980802E+01  2.637980802E+01  1.945308194E-07  0.00000E+00  9.000E+00
      23     2     1     2     0     0 -2.083521164E+00 -2.936480238E+00  3.543964943E+02  3.663146215E+02  9.260973352E+01  0.00000E+00  9.000E+00
      11     1     3     3     0     0 -2.663902524E+01 -3.988686950E+01  1.681727326E+02  1.748790097E+02  5.109989100E-04  0.00000E+00  9.000E+00
     -11     1     3     3     0     0  2.455550408E+01  3.695038926E+01  1.862237617E+02  1.914356118E+02  5.109989100E-04  0.00000E+00  9.000E+00
      -1     1     1     2     0   511  2.083521164E+00  2.936480238E+00 -2.026203357E+01  2.057945531E+01  0.000000000E+00  0.00000E+00  9.000E+00
#rwgt            1           5   193.93470552249713         54217137         634           0
</event>
<event>
      6  10011  1.22355E+03  9.43178E+00 -1.00000E+00  2.05162E-01
       1    -1     0     0   501     0  0.000000000E+00  0.000000000E+00  6.469872510E+02  6.469872510E+02  5.121482465E-06  0.00000E+00  9.000E+00
      21    -1     0     0   511   501  0.000000000E+00  0.000000000E+00 -6.417847999E+00  6.417847999E+00  2.858661296E-08  0.00000E+00  9.000E+00
      23     2     1     2     0     0  9.338263408E+00  1.324891406E+00  6.368686595E+02  6.432732678E+02  9.005470048E+01  0.00000E+00  9.000E+00
      11     1     3     3     0     0 -8.370342846E+00  1.498593448E+01  5.993383503E+02  5.995841050E+02  5.109989100E-04  0.00000E+00  9.000E+00
     -11     1     3     3     0     0  1.770860625E+01 -1.366104307E+01  3.753030932E+01  4.368916286E+01  5.109989100E-04  0.00000E+00  9.000E+00
       1     1     1     2   511     0 -9.338263408E+00 -1.324891406E+00  3.700743440E+00  1.013183116E+01  0.000000000E+00  0.00000E+00  9.000E+00
#rwgt            1           6   504.33955479225563         54217137         763           0
</event>
<event>
      6  10011  1.22355E+03  2.08159E+01 -1.00000E+00  1.69284E-01
       1    -1     0     0   501     0  0.000000000E+00  0.000000000E+00  1.352131378E+02  1.352131378E+02  1.235288740E-06  0.00000E+00  9.000E+00
      21    -1     0     0   511   501  0.000000000E+00  0.000000000E+00 -2.499025397E+01  2.499025397E+01  3.255941746E-08  0.00000E+00  9.000E+00
      23     2     1     2     0     0  1.522283844E+01  1.419740858E+01  1.003341316E+02  1.371580313E+02  9.117064417E+01  0.00000E+00  9.000E+00
      11     1     3     3     0     0 -8.524957816E+00  3.842672941E+01  9.925219841E+00  4.059308350E+01  5.109989100E-04  0.00000E+00  9.000E+00
     -11     1     3     3     0     0  2.374779626E+01 -2.422932083E+01  9.040891175E+01  9.656494777E+01  5.109989100E-04  0.00000E+00  9.000E+00
       1     1     1     2   511     0 -1.522283844E+01 -1.419740858E+01  9.888752269E+00  2.304536053E+01  0.000000000E+00  0.00000E+00  9.000E+00
#rwgt            1           6   243.09252305724590         54217137         852           0
</event>
<event>
      6  10011  1.22355E+03  3.85160E+01 -1.00000E+00  1.49220E-01
      -2    -1     0     0     0   501  0.000000000E+00  0.000000000E+00  8.759464249E+01  8.759464249E+01  5.272283459E-07  0.00000E+00  9.000E+00
       2    -1     0     0   511     0  0.000000000E+00  0.000000000E+00 -7.093703301E+01  7.093703301E+01  5.297050187E-07  0.00000E+00  9.000E+00
      23     2     1     2     0     0 -2.993963130E+01  2.423023159E+01  4.603827744E+01  1.100888298E+02  9.228511159E+01  0.00000E+00  9.000E+00
      11     1     3     3     0     0  9.948094870E+00 -2.843753342E+01  1.025830288E+00  3.014482089E+01  5.109989100E-04  0.00000E+00  9.000E+00
     -11     1     3     3     0     0 -3.988772617E+01  5.266776500E+01  4.501244716E+01  7.994400896E+01  5.109989100E-04  0.00000E+00  9.000E+00
      21     1     1     2   511   501  2.993963130E+01 -2.423023159E+01 -2.938066797E+01  4.844284566E+01  8.638217938E-07  0.00000E+00  9.000E+00
#rwgt            1           4   195.24094360664742         54217137         923           0
</event>
<event>
      6  10011  1.22355E+03  1.17885E+01 -1.00000E+00  1.93542E-01
       2    -1     0     0   501     0  0.000000000E+00  0.000000000E+00  2.814004109E+02  2.814004109E+02  3.786705667E-07  0.00000E+00  9.000E+00
      21    -1     0     0   511   501  0.000000000E+00  0.000000000E+00 -1.784794421E+01  1.784794421E+01  1.451905425E-07  0.00000E+00  9.000E+00
      23     2     1     2     0     0  3.702659412E+00 -1.119196623E+01  2.699462804E+02  2.858375143E+02  9.323690535E+01  0.00000E+00  9.000E+00
      11     1     3     3     0     0  1.948718132E+01 -4.558511028E+01  2.027019920E+02  2.086764244E+02  5.109989100E-04  0.00000E+00  9.000E+00
     -11     1     3     3     0     0 -1.578452191E+01  3.439314405E+01  6.724428835E+01  7.716108997E+01  5.109989100E-04  0.00000E+00  9.000E+00
       2     1     1     2   511     0 -3.702659412E+00  1.119196623E+01 -6.393813736E+00  1.341084072E+01  0.000000000E+00  0.00000E+00  9.000E+00
#rwgt            1           7   475.10625148987464         54217137         948           0
</event>
<event>
      6  10011  1.22355E+03  1.61582E+01 -1.00000E+00  1.79266E-01
      -1    -1     0     0     0   501  0.000000000E+00  0.000000000E+00  3.215409675E+00  3.215409675E+00  1.426887900E-08  0.00000E+00  9.000E+00
       1    -1     0     0   511     0  0.000000000E+00  0.000000000E+00 -9.024834452E+02  9.024834452E+02  7.355248475E-06  0.00000E+00  9.000E+00
      23     2     1     2     0     0  6.769270201E+00  1.467191790E+01 -7.257537495E+02  7.314338393E+02  8.953138101E+01  0.00000E+00  9.000E+00
      11     1     3     3     0     0  3.695965531E+01 -6.803685623E+00 -5.737712512E+02  5.750006565E+02  5.109989100E-04  0.00000E+00  9.000E+00
     -11     1     3     3     0     0 -3.019038511E+01  2.147560352E+01 -1.519824983E+02  1.564331829E+02  5.109989100E-04  0.00000E+00  9.000E+00
      21     1     1     2   511   501 -6.769270201E+00 -1.467191790E+01 -1.735142860E+02  1.742650155E+02  1.165397219E-06  0.00000E+00  9.000E+00
#rwgt            1           5   490.24352483736925         54217137        1049           0
</event>
<event>
      6  10011  1.22355E+03  1.91950E+01 -1.00000E+00  1.72352E-01
       3    -1     0     0   501     0  0.000000000E+00  0.000000000E+00  2.144336320E+01  2.144336320E+01  1.475221273E-07  0.00000E+00  9.000E+00
      21    -1     0     0   511   501  0.000000000E+00  0.000000000E+00 -1.505890078E+02  1.505890078E+02  1.290118590E-06  0.00000E+00  9.000E+00
      23     2     1     2     0     0 -4.601350435E+00 -1.863535331E+01 -1.003765232E+02  1.374475309E+02  9.191261351E+01  0.00000E+00  9.000E+00
      11     1     3     3     0     0  2.333127013E+01 -4.610767940E+01 -3.945308459E+01  6.501393812E+01  5.109989100E-04  0.00000E+00  9.000E+00
     -11     1     3     3     0     0 -2.793262057E+01  2.747232608E+01 -6.092343860E+01  7.243359278E+01  5.109989100E-04  0.00000E+00  9.000E+00
       3     1     1     2   511     0  4.601350435E+00  1.863535331E+01 -2.876912142E+01  3.458484012E+01  0.000000000E+00  0.00000E+00  9.000E+00
#rwgt            1           8   107.11778888044478         54217137        1095           0
</event>
<event>
      6  10011  1.22355E+03  3.40280E+00 -1.00000E+00  2.94693E-01
      21    -1     0     0   511   501  0.000000000E+00  0.000000000E+00  2.079781397E+00  2.079781397E+00  1.982217234E-08  0.00000E+00  9.000E+00
       1    -1     0     0   501     0  0.000000000E+00  0.000000000E+00 -1.008846729E+03  1.008846729E+03  5.360331000E-06  0.00000E+00  9.000E+00
      23     2     1     2     0     0  3.201550944E+00  1.152887434E+00 -1.004306906E+03  1.006727596E+03  6.968868071E+01  0.00000E+00  9.000E+00
      11     1     3     3     0     0  3.295446327E+01 -7.572858675E+00 -3.348174072E+02  3.365204912E+02  5.109989100E-04  0.00000E+00  9.000E+00
     -11     1     3     3     0     0 -2.975291232E+01  8.725746108E+00 -6.694894986E+02  6.702071047E+02  5.109989100E-04  0.00000E+00  9.000E+00
       1     1     1     2   511     0 -3.201550944E+00 -1.152887434E+00 -2.460041962E+00  4.198914662E+00  0.000000000E+00  0.00000E+00  9.000E+00
#rwgt            1           5   435.96407522276979         54217137        1146           0
</event>
<event>
      6  10011  1.22355E+03  1.66968E+00 -1.00000E+00  4.34489E-01
       1    -1     0     0   511     0  0.000000000E+00  0.000000000E+00  8.239764267E+02  8.239764267E+02  5.523273177E-06  0.00000E+00  9.000E+00
      -1    -1     0     0     0   501  0.000000000E+00  0.000000000E+00 -2.833207370E+00  2.833207370E+00  2.974650359E-08  0.00000E+00  9.000E+00
      23     2     1     2     0     0 -1.107120037E-01 -1.666007520E+00  7.419959461E+02  7.476447511E+02  9.171642142E+01  0.00000E+00  9.000E+00
      11     1     3     3     0     0  1.233963009E+00  9.116862705E+00  4.815215820E+00  1.038393730E+01  5.109989100E-04  0.00000E+00  9.000E+00
     -11     1     3     3     0     0 -1.344675013E+00 -1.078287022E+01  7.371807303E+02  7.372608138E+02  5.109989100E-04  0.00000E+00  9.000E+00
      21     1     1     2   511   501  1.107120037E-01  1.666007520E+00  7.914727326E+01  7.916488302E+01  1.048498860E-06  0.00000E+00  9.000E+00
#rwgt            1           6   563.16377435011941         54217137        1294           0
</event>
<event>
      6  10011  1.22355E+03  3.98171E+00 -1.00000E+00  2.75690E-01
      -1    -1     0     0     0   511  0.000000000E+00  0.000000000E+00  2.804704532E+00  2.804704532E+00  1.659573347E-08  0.00000E+00  9.000E+00
       1    -1     0     0   501     0  0.000000000E+00  0.000000000E+00 -8.502680338E+02  8.502680338E+02  4.253111988E-06  0.00000E+00  9.000E+00
      23     2     1     2     0     0  2.725359107E+00  2.902836624E+00 -8.190622713E+02  8.243939284E+02  9.352267612E+01  0.00000E+00  9.000E+00
      11     1     3     3     0     0 -2.700821602E+01  3.609903408E+00 -7.600705790E+01  8.074371794E+01  5.109989100E-04  0.00000E+00  9.000E+00
     -11     1     3     3     0     0  2.973357513E+01 -7.070667839E-01 -7.430552134E+02  7.436502105E+02  5.109989100E-04  0.00000E+00  9.000E+00
      21     1     1     2   501   511 -2.725359107E+00 -2.902836624E+00 -2.840105803E+01  2.867880995E+01  5.318395053E-07  0.00000E+00  9.000E+00
#rwgt            1           5   309.79971423795354         54217137        1478           0
</event>
<event>
      6  10011  1.22355E+03  8.61644E+00 -1.00000E+00  2.10298E-01
       1    -1     0     0   511     0  0.000000000E+00  0.000000000E+00  1.121819724E+02  1.121819724E+02  4.576148108E-07  0.00000E+00  9.000E+00
      -1    -1     0     0     0   501  0.000000000E+00  0.000000000E+00 -3.606098828E+01  3.606098828E+01  2.035865915E-07  0.00000E+00  9.000E+00
      23     2     1     2     0     0  7.522543889E+00 -4.201720573E+00  2.871764772E+01  1.000628878E+02  9.546536072E+01  0.00000E+00  9.000E+00
      11     1     3     3     0     0  3.089883652E+01  1.217427711E+00 -2.594483938E+01  4.036526872E+01  5.109989100E-04  0.00000E+00  9.000E+00
     -11     1     3     3     0     0 -2.337629263E+01 -5.419148284E+00  5.466248710E+01  5.969761906E+01  5.109989100E-04  0.00000E+00  9.000E+00
      21     1     1     2   511   501 -7.522543889E+00  4.201720573E+00  4.740333645E+01  4.818007294E+01  3.481645953E-07  0.00000E+00  9.000E+00
#rwgt            1           6   180.58652720938377         54217137        1669           0
</event>
<event>
      6  10011  1.22355E+03  2.97838E+01 -1.00000E+00  1.56976E-01
       1    -1     0     0   501     0  0.000000000E+00  0.000000000E+00  7.851316719E+02  7.851316719E+02  5.131363636E-06  0.00000E+00  9.000E+00
      21    -1     0     0   511   501  0.000000000E+00  0.000000000E+00 -6.831999845E+00  6.831999845E+00  5.948119614E-08  0.00000E+00  9.000E+00
      23     2     1     2     0     0 -2.958111671E+01  3.469119552E+00  7.206935740E+02  7.271135384E+02  9.169401792E+01  0.00000E+00  9.000E+00
      11     1     3     3     0     0 -3.905534982E+01 -3.744144149E+01  4.345121025E+02  4.378675018E+02  5.109989100E-04  0.00000E+00  9.000E+00
     -11     1     3     3     0     0  9.474233111E+00  4.091056104E+01  2.861814715E+02  2.892460367E+02  5.109989100E-04  0.00000E+00  9.000E+00
       1     1     1     2   511     0  2.958111671E+01 -3.469119552E+00  5.760609803E+01  6.485013328E+01  0.000000000E+00  0.00000E+00  9.000E+00
#rwgt            1           6   507.42139322792684         54217137        1747           0
</event>
<event>
      6  10011  1.22355E+03  3.58946E+00 -1.00000E+00  2.87929E-01
       1    -1     0     0   511     0  0.000000000E+00  0.000000000E+00  5.979645744E+02  5.979645744E+02  4.522456055E-06  0.00000E+00  9.000E+00
      -1    -1     0     0     0   501  0.000000000E+00  0.000000000E+00 -3.451179738E+00  3.451179738E+00  2.328869316E-08  0.00000E+00  9.000E+00
      23     2     1     2     0     0  2.980857110E+00  1.999686414E+00  5.686846945E+02  5.753388294E+02  8.717569922E+01  0.00000E+00  9.000E+00
      11     1     3     3     0     0 -1.104381266E+01 -2.347586777E+01  5.479033477E+01  6.062229746E+01  5.109989100E-04  0.00000E+00  9.000E+00
     -11     1     3     3     0     0  1.402466977E+01  2.547555418E+01  5.138943598E+02  5.147165319E+02  5.109989100E-04  0.00000E+00  9.000E+00
      21     1     1     2   511   501 -2.980857110E+00 -1.999686414E+00  2.582870016E+01  2.607692479E+01  3.272225540E-07  0.00000E+00  9.000E+00
#rwgt            1           6   390.39328134900597         54217137        1815           0
</event>
<event>
      6  10011  1.22355E+03  5.12261E+00 -1.00000E+00  2.46019E-01
      -1    -1     0     0     0   501  0.000000000E+00  0.000000000E+00  2.506018221E+01  2.506018221E+01  6.126657399E-08  0.00000E+00  9.000E+00
      21    -1     0     0   501   511  0.000000000E+00  0.000000000E+00 -1.764855532E+02  1.764855532E+02  1.137989249E-06  0.00000E+00  9.000E+00
      23     2     1     2     0     0 -7.801686069E-01 -5.062851617E+00 -5.635072018E+01  1.063331818E+02  9.002833313E+01  0.00000E+00  9.000E+00
      11     1     3     3     0     0 -8.654804105E+00  3.742897739E+01 -4.937292623E+01  6.255813158E+01  5.109989100E-04  0.00000E+00  9.000E+00
     -11     1     3     3     0     0  7.874635498E+00 -4.249182901E+01 -6.977793951E+00  4.377505026E+01  5.109989100E-04  0.00000E+00  9.000E+00
      -1     1     1     2     0   511  7.801686069E-01  5.062851617E+00 -9.507465085E+01  9.521255361E+01  0.000000000E+00  0.00000E+00  9.000E+00
#rwgt            1           5   271.48616997845301         54217137        1937           0
</event>
<event>
      6  10011  1.22355E+03  3.18090E+01 -1.00000E+00  1.54914E-01
      21    -1     0     0   511   501  0.000000000E+00  0.000000000E+00  1.591833381E+02  1.591833381E+02  9.978379688E-07  0.00000E+00  9.000E+00
       3    -1     0     0   501     0  0.000000000E+00  0.000000000E+00 -5.339382290E+01  5.339382290E+01  2.998048733E-07  0.00000E+00  9.000E+00
      23     2     1     2     0     0 -1.485040563E+01  2.812962544E+01 -5.382992659E+00  9.694352887E+01  9.141805514E+01  0.00000E+00  9.000E+00
      11     1     3     3     0     0  3.422884043E+01  2.411133122E+00  1.560095502E+01  3.769372465E+01  5.109989100E-04  0.00000E+00  9.000E+00
     -11     1     3     3     0     0 -4.907924606E+01  2.571849232E+01 -2.098394768E+01  5.924980423E+01  5.109989100E-04  0.00000E+00  9.000E+00
       3     1     1     2   511     0  1.485040563E+01 -2.812962544E+01  1.111725079E+02  1.156336321E+02  0.000000000E+00  0.00000E+00  9.000E+00
#rwgt            1           3   102.21217993689643         54217137        2061           0
</event>
<event>
      6  10011  1.22355E+03  1.24877E+01 -1.00000E+00  1.90759E-01
      21    -1     0     0   501   511  0.000000000E+00  0.000000000E+00  3.797210136E+01  3.797210136E+01  3.198580979E-07  0.00000E+00  9.000E+00
      -3    -1     0     0     0   501  0.000000000E+00  0.000000000E+00 -7.033850108E+01  7.033850108E+01  2.688815909E-07  0.00000E+00  9.000E+00
      23     2     1     2     0     0 -5.029734087E-01 -1.247752127E+01 -2.458236225E+01  9.359555034E+01  8.944212090E+01  0.00000E+00  9.000E+00
      11     1     3     3     0     0  1.582609834E+00  1.425209076E+01 -5.277587653E+01  5.468930324E+01  5.109989100E-04  0.00000E+00  9.000E+00
     -11     1     3     3     0     0 -2.085583243E+00 -2.672961203E+01  2.819351427E+01  3.890624711E+01  5.109989100E-04  0.00000E+00  9.000E+00
      -3     1     1     2     0   511  5.029734087E-01  1.247752127E+01 -7.784037465E+00  1.471505210E+01  0.000000000E+00  0.00000E+00  9.000E+00
#rwgt            1           8   91.549039252567823         54217137        2109           0
</event>
<event>
      6  10011  1.22355E+03  2.44162E+01 -1.00000E+00  1.63566E-01
       2    -1     0     0   501     0  0.000000000E+00  0.000000000E+00  9.023637353E+02  9.023637353E+02  3.882613041E-06  0.00000E+00  9.000E+00
      -2    -1     0     0     0   511  0.000000000E+00  0.000000000E+00 -4.132271543E+00  4.132271543E+00  2.954047760E-08  0.00000E+00  9.000E+00
      23     2     1     2     0     0  2.247703672E+01  9.535946777E+00  7.777168452E+02  7.835329036E+02  9.210954532E+01  0.00000E+00  9.000E+00
      11     1     3     3     0     0  1.016994112E+01 -3.785872374E+01  4.998266811E+02  5.013615679E+02  5.109989100E-04  0.00000E+00  9.000E+00
     -11     1     3     3     0     0  1.230709560E+01  4.739467052E+01  2.778901641E+02  2.821713357E+02  5.109989100E-04  0.00000E+00  9.000E+00
      21     1     1     2   501   511 -2.247703672E+01 -9.535946777E+00  1.205146186E+02  1.229631032E+02  1.807690246E-06  0.00000E+00  9.000E+00
#rwgt            1           7   670.71400899814762         54217137        2146           0
</event>
<event>
      6  10011  1.22355E+03  4.54213E+00 -1.00000E+00  2.61648E-01
      -3    -1     0     0     0   501  0.000000000E+00  0.000000000E+00  3.219274716E+01  3.219274716E+01  2.807984961E-07  0.00000E+00  9.000E+00
       3    -1     0     0   511     0  0.000000000E+00  0.000000000E+00 -7.179163827E+01  7.179163827E+01  6.700973926E-07  0.00000E+00  9.000E+00
      23     2     1     2     0     0 -1.265440746E+00  4.362291846E+00 -3.641606440E+01  9.843809692E+01  9.134165669E+01  0.00000E+00  9.000E+00
      11     1     3     3     0     0  1.676393877E+01 -3.999906502E+01 -1.406672594E+01  4.559416218E+01  5.109989100E-04  0.00000E+00  9.000E+00
     -11     1     3     3     0     0 -1.802937952E+01  4.436135687E+01 -2.234933847E+01  5.284393475E+01  5.109989100E-04  0.00000E+00  9.000E+00
      21     1     1     2   511   501  1.265440746E+00 -4.362291846E+00 -3.182826701E+00  5.546288510E+00  4.484090684E-08  0.00000E+00  9.000E+00
#rwgt            1           3   133.57127638557989         54217137        2179           0
</event>
<event>
      6  10011  1.22355E+03  1.69128E+01 -1.00000E+00  1.77378E-01
      -1    -1     0     0     0   501  0.000000000E+00  0.000000000E+00  7.859039401E+01  7.859039401E+01  6.030364648E-07  0.00000E+00  9.000E+00
      21    -1     0     0   501   511  0.000000000E+00  0.000000000E+00 -3.859605514E+01  3.859605514E+01  1.883901555E-07  0.00000E+00  9.000E+00
      23     2     1     2     0     0  7.934204188E+00 -1.493618965E+01  4.726398560E+01  9.877750781E+01  8.507097247E+01  0.00000E+00  9.000E+00
      11     1     3     3     0     0 -3.146385000E+01 -1.292993163E+01  4.858081859E+01  5.930643240E+01  5.109989100E-04  0.00000E+00  9.000E+00
     -11     1     3     3     0     0  3.939805419E+01 -2.006258023E+00 -1.316832988E+00  3.947107542E+01  5.109989100E-04  0.00000E+00  9.000E+00
      -1     1     1     2     0   511 -7.934204188E+00  1.493618965E+01 -7.269646731E+00  1.840894133E+01  0.000000000E+00  0.00000E+00  9.000E+00
#rwgt            1           5   196.27371538057136         54217137        2284           0
</event>
<event>
      6  10011  1.22355E+03  3.19988E+00 -1.00000E+00  3.02913E-01
      -1    -1     0     0     0   511  0.000000000E+00  0.000000000E+00  1.910970814E+01  1.910970814E+01  1.620600600E-07  0.00000E+00  9.000E+00
       1    -1     0     0   501     0  0.000000000E+00  0.000000000E+00 -1.399359896E+02  1.399359896E+02  1.168964679E-06  0.00000E+00  9.000E+00
      23     2     1     2     0     0 -1.316593103E+00 -2.916474376E+00 -1.229707328E+02  1.551936968E+02  9.462052188E+01  0.00000E+00  9.000E+00
      11     1     3     3     0     0 -1.237735264E+01  9.568094570E+00 -1.341855969E+02  1.350944918E+02  5.109989100E-04  0.00000E+00  9.000E+00
     -11     1     3     3     0     0  1.106075954E+01 -1.248456895E+01  1.121486414E+01  2.009920499E+01  5.109989100E-04  0.00000E+00  9.000E+00
      21     1     1     2   501   511  1.316593103E+00  2.916474376E+00  2.144451297E+00  3.852000980E+00  1.869763378E-08  0.00000E+00  9.000E+00
#rwgt            1           5   374.38145479208794         54217137        2332           0
</event>
<event>
      6  10011  1.22355E+03  1.58490E+01 -1.00000E+00  1.80078E-01
       1    -1     0     0   511     0  0.000000000E+00  0.000000000E+00  8.852053626E+02  8.852053626E+02  5.239671426E-06  0.00000E+00  9.000E+00
      -1    -1     0     0     0   501  0.000000000E+00  0.000000000E+00 -3.377086098E+01  3.377086098E+01  1.726572305E-07  0.00000E+00  9.000E+00
      23     2     1     2     0     0  9.816136752E+00  1.244325770E+01  3.081099984E+01  9.819968708E+01  9.188400094E+01  0.00000E+00  9.000E+00
      11     1     3     3     0     0 -2.325150319E+01 -2.733474179E+01  2.950050691E+01  4.645535941E+01  5.109989100E-04  0.00000E+00  9.000E+00
     -11     1     3     3     0     0  3.306763994E+01  3.977799949E+01  1.310492931E+00  5.174432768E+01  5.109989100E-04  0.00000E+00  9.000E+00
      21     1     1     2   511   501 -9.816136752E+00 -1.244325770E+01  8.206235017E+02  8.207765365E+02  5.645007802E-06  0.00000E+00  9.000E+00
#rwgt            1           6   270.07741823033763         54217137        2511           0
</event>
<event>
      6  10011  1.22355E+03  5.05207E+00 -1.00000E+00  2.47148E-01
       2    -1     0     0   511     0  0.000000000E+00  0.000000000E+00  8.865669396E+02  8.865669396E+02  6.612571057E-06  0.00000E+00  9.000E+00
      -2    -1     0     0     0   501  0.000000000E+00  0.000000000E+00 -2.760088208E+00  2.760088208E+00  9.292542624E-09  0.00000E+00  9.000E+00
      23     2     1     2     0     0 -1.762842819E+00 -4.734536526E+00  7.634015935E+02  7.688158268E+02  9.094096470E+01  0.00000E+00  9.000E+00
      11     1     3     3     0     0  1.339747583E+01  3.669872716E+01  2.060690868E+02  2.097397375E+02  5.109989100E-04  0.00000E+00  9.000E+00
     -11     1     3     3     0     0 -1.516031865E+01 -4.143326369E+01  5.573325067E+02  5.590760893E+02  5.109989100E-04  0.00000E+00  9.000E+00
      21     1     1     2   511   501  1.762842819E+00  4.734536526E+00  1.204052578E+02  1.205112010E+02  1.326048915E-06  0.00000E+00  9.000E+00
#rwgt            1           7   548.83424066661144         54217137        2572           0
</event>
<event>
      6  10011  1.22355E+03  4.78058E+00 -1.00000E+00  2.56591E-01
      -4    -1     0     0     0   511  0.000000000E+00  0.000000000E+00  8.340087616E+01  8.340087616E+01  3.501153795E-07  0.00000E+00  9.000E+00
       4    -1     0     0   501     0  0.000000000E+00  0.000000000E+00 -1.795934532E+02  1.795934532E+02  8.348860971E-07  0.00000E+00  9.000E+00
      23     2     1     2     0     0 -4.780580155E+00 -5.213024171E-03 -1.682303193E+02  1.907981363E+02  8.988678718E+01  0.00000E+00  9.000E+00
      11     1     3     3     0     0 -5.995838319E-01  1.381995905E+01 -1.745036393E+02  1.750510522E+02  5.109989100E-04  0.00000E+00  9.000E+00
     -11     1     3     3     0     0 -4.180996323E+00 -1.382517207E+01  6.273319969E+00  1.574708407E+01  5.109989100E-04  0.00000E+00  9.000E+00
      21     1     1     2   501   511  4.780580155E+00  5.213024171E-03  7.203774229E+01  7.219619303E+01  8.688699713E-07  0.00000E+00  9.000E+00
#rwgt            1           2   47.808698348852325         54217137        2677           0
</event>
<event>
      6  10011  1.22355E+03  2.02281E+00 -1.00000E+00  3.84287E-01
       2    -1     0     0   511     0  0.000000000E+00  0.000000000E+00  1.979195321E+01  1.979195321E+01  7.808243635E-08  0.00000E+00  9.000E+00
      -2    -1     0     0     0   501  0.000000000E+00  0.000000000E+00 -1.189617737E+02  1.189617737E+02  6.970782314E-07  0.00000E+00  9.000E+00
      23     2     1     2     0     0  1.677520587E+00  1.130349876E+00 -1.004884497E+02  1.363390739E+02  9.212123956E+01  0.00000E+00  9.000E+00
      11     1     3     3     0     0 -2.270273989E+01  1.950365987E+01 -1.014729501E+02  1.057949278E+02  5.109989100E-04  0.00000E+00  9.000E+00
     -11     1     3     3     0     0  2.438026048E+01 -1.837330999E+01  9.845003562E-01  3.054414612E+01  5.109989100E-04  0.00000E+00  9.000E+00
      21     1     1     2   511   501 -1.677520587E+00 -1.130349876E+00  1.318629224E+00  2.414653017E+00  2.616237699E-08  0.00000E+00  9.000E+00
#rwgt            1           7   116.35834118227733         54217137        2776           0
</event>
<event>
      6  10011  1.22355E+03  8.56868E+00 -1.00000E+00  2.10622E-01
       2    -1     0     0   501     0  0.000000000E+00  0.000000000E+00  7.188548998E+01  7.188548998E+01  5.081717795E-07  0.00000E+00  9.000E+00
      -2    -1     0     0     0   511  0.000000000E+00  0.000000000E+00 -3.618486865E+01  3.618486865E+01  2.330223722E-07  0.00000E+00  9.000E+00
      23     2     1     2     0     0 -5.790383894E+00 -6.316146895E+00  3.652171205E+01  9.946242931E+01  9.211686673E+01  0.00000E+00  9.000E+00
      11     1     3     3     0     0 -1.631115445E+01  1.593844028E+00  6.556147637E+01  6.757885233E+01  5.109989100E-04  0.00000E+00  9.000E+00
     -11     1     3     3     0     0  1.052077056E+01 -7.909990923E+00 -2.903976432E+01  3.188357698E+01  5.109989100E-04  0.00000E+00  9.000E+00
      21     1     1     2   501   511  5.790383894E+00  6.316146895E+00 -8.210907141E-01  8.607929322E+00  6.794826547E-08  0.00000E+00  9.000E+00
#rwgt            1           7   311.79774180494775         54217137        2986           0
</event>
<event>
      6  10011  1.22355E+03  5.20298E+00 -1.00000E+00  2.44765E-01
      21    -1     0     0   511   501  0.000000000E+00  0.000000000E+00  1.204565644E+02  1.204565644E+02  7.058183383E-07  0.00000E+00  9.000E+00
       2    -1     0     0   501     0  0.000000000E+00  0.000000000E+00 -1.688128904E+01  1.688128904E+01  1.681775907E-07  0.00000E+00  9.000E+00
      23     2     1     2     0     0 -5.179404083E+00  4.947285822E-01  8.926557420E+01  1.221116087E+02  8.316147694E+01  0.00000E+00  9.000E+00
      11     1     3     3     0     0  3.087752855E+01 -1.379930338E+01  7.221516100E+01  7.974253584E+01  5.109989100E-04  0.00000E+00  9.000E+00
     -11     1     3     3     0     0 -3.605693264E+01  1.429403196E+01  1.705041321E+01  4.236907282E+01  5.109989100E-04  0.00000E+00  9.000E+00
       2     1     1     2   511     0  5.179404083E+00 -4.947285822E-01  1.430970114E+01  1.522624477E+01  0.000000000E+00  0.00000E+00  9.000E+00
#rwgt            1           4   148.73232935718613         54217137        3051           0
</event>
<event>
      6  10011  1.22355E+03  1.24575E+01 -1.00000E+00  1.90875E-01
       2    -1     0     0   501     0  0.000000000E+00  0.000000000E+00  5.341387074E+01  5.341387074E+01  4.664353824E-07  0.00000E+00  9.000E+00
      21    -1     0     0   511   501  0.000000000E+00  0.000000000E+00 -5.295712473E+01  5.295712473E+01  1.585977511E-07  0.00000E+00  9.000E+00
      23     2     1     2     0     0  1.243474732E+01 -7.528078162E-01 -6.018420246E+00  9.233114367E+01  9.128871260E+01  0.00000E+00  9.000E+00
      11     1     3     3     0     0 -3.777667206E+01  9.765585790E-01  1.087977076E+01  3.932429313E+01  5.109989100E-04  0.00000E+00  9.000E+00
     -11     1     3     3     0     0  5.021141938E+01 -1.729366395E+00 -1.689819101E+01  5.300685054E+01  5.109989100E-04  0.00000E+00  9.000E+00
       2     1     1     2   511     0 -1.243474732E+01  7.528078162E-01  6.475166257E+00  1.403985180E+01  0.000000000E+00  0.00000E+00  9.000E+00
#rwgt            1           7   173.84480497069933         54217137        3151           0
</event>
<event>
      6  10011  1.22355E+03  2.63111E+01 -1.00000E+00  1.61021E-01
      21    -1     0     0   501   511  0.000000000E+00  0.000000000E+00  4.476447745E+01  4.476447745E+01  2.967543191E-07  0.00000E+00  9.000E+00
      -5    -1     0     0     0   501  0.000000000E+00  0.000000000E+00 -5.971027623E+02  5.971027623E+02  2.067714992E-06  0.00000E+00  9.000E+00
      23     2     1     2     0     0 -1.634182626E+01 -2.062077936E+01 -5.891562685E+02  5.966142205E+02  9.028370543E+01  0.00000E+00  9.000E+00
      11     1     3     3     0     0  3.419906928E+01 -2.545467369E+01 -3.037482125E+02  3.067254364E+02  5.109989100E-04  0.00000E+00  9.000E+00
     -11     1     3     3     0     0 -5.054089554E+01  4.833894333E+00 -2.854080561E+02  2.898887841E+02  5.109989100E-04  0.00000E+00  9.000E+00
      -5     1     1     2     0   511  1.634182626E+01  2.062077936E+01  3.681798372E+01  4.525301926E+01  0.000000000E+00  0.00000E+00  9.000E+00
#rwgt            1          10   7.5393687383319241         54217137        3221           0
</event>
<event>
      6  10011  1.22355E+03  3.94583E+00 -1.00000E+00  2.76714E-01
       3    -1     0     0   511     0  0.000000000E+00  0.000000000E+00  9.250592020E+00  9.250592020E+00  7.793166521E-08  0.00000E+00  9.000E+00
      -3    -1     0     0     0   501  0.000000000E+00  0.000000000E+00 -2.345134796E+02  2.345134796E+02  1.671816236E-06  0.00000E+00  9.000E+00
      23     2     1     2     0     0 -3.498010157E+00  1.825781528E+00 -2.166045185E+02  2.342489832E+02  8.910386706E+01  0.00000E+00  9.000E+00
      11     1     3     3     0     0  2.479158174E+01 -3.489374109E+01 -1.072150178E+02  1.154437341E+02  5.109989100E-04  0.00000E+00  9.000E+00
     -11     1     3     3     0     0 -2.828959190E+01  3.671952261E+01 -1.093895007E+02  1.188052491E+02  5.109989100E-04  0.00000E+00  9.000E+00
      21     1     1     2   511   501  3.498010157E+00 -1.825781528E+00 -8.658369090E+00  9.515088467E+00  7.978983786E-08  0.00000E+00  9.000E+00
#rwgt            1           8   96.288825959225505         54217137        3264           0
</event>
<event>
      6  10011  1.22355E+03  2.12037E+01 -1.00000E+00  1.68602E-01
      21    -1     0     0   501   511  0.000000000E+00  0.000000000E+00  7.540882932E+01  7.540882932E+01  4.995564379E-07  0.00000E+00  9.000E+00
      -3    -1     0     0     0   501  0.000000000E+00  0.000000000E+00 -9.667985858E+01  9.667985858E+01  6.376288842E-07  0.00000E+00  9.000E+00
      23     2     1     2     0     0  1.105228585E+01  1.809538691E+01 -7.265635597E+01  1.165004891E+02  8.856535347E+01  0.00000E+00  9.000E+00
      11     1     3     3     0     0  1.129712743E+01  5.194986285E+01 -2.690307714E+01  5.958346162E+01  5.109989100E-04  0.00000E+00  9.000E+00
     -11     1     3     3     0     0 -2.448415755E-01 -3.385447594E+01 -4.575327884E+01  5.691702744E+01  5.109989100E-04  0.00000E+00  9.000E+00
      -3     1     1     2     0   511 -1.105228585E+01 -1.809538691E+01  5.138532672E+01  5.558819885E+01  0.000000000E+00  0.00000E+00  9.000E+00
#rwgt            1           8   129.01190865169190         54217137        3317           0
</event>
<event>
      6  10011  1.22355E+03  8.81890E+00 -1.00000E+00  2.08953E-01
       2    -1     0     0   501     0  0.000000000E+00  0.000000000E+00  6.938869934E+01  6.938869934E+01  1.997589017E-07  0.00000E+00  9.000E+00
      21    -1     0     0   511   501  0.000000000E+00  0.000000000E+00 -3.728427886E+01  3.728427886E+01  5.599383256E-08  0.00000E+00  9.000E+00
      23     2     1     2     0     0 -8.742596566E+00 -1.157593641E+00  3.163811747E+01  9.784175766E+01  9.216434260E+01  0.00000E+00  9.000E+00
      11     1     3     3     0     0 -3.661506502E+01 -1.349336302E+01 -1.526752501E+01  4.190263896E+01  5.109989100E-04  0.00000E+00  9.000E+00
     -11     1     3     3     0     0  2.787246845E+01  1.233576938E+01  4.690564249E+01  5.593911870E+01  5.109989100E-04  0.00000E+00  9.000E+00
       2     1     1     2   511     0  8.742596566E+00  1.157593641E+00  4.663030127E-01  8.831220542E+00  0.000000000E+00  0.00000E+00  9.000E+00
#rwgt            1           7   164.18680277107038         54217137        3367           0
</event>
<event>
      6  10011  1.22355E+03  3.53930E+00 -1.00000E+00  2.89679E-01
       2    -1     0     0   501     0  0.000000000E+00  0.000000000E+00  3.344014819E+01  3.344014819E+01  2.238632743E-07  0.00000E+00  9.000E+00
      -2    -1     0     0     0   511  0.000000000E+00  0.000000000E+00 -6.506219589E+01  6.506219589E+01  2.409789121E-07  0.00000E+00  9.000E+00
      23     2     1     2     0     0 -1.471047797E+00 -3.219108677E+00 -3.020474822E+01  9.468981472E+01  8.967333804E+01  0.00000E+00  9.000E+00
      11     1     3     3     0     0  2.547065835E+01  3.500371795E+00  2.311498785E+01  3.457325126E+01  5.109989100E-04  0.00000E+00  9.000E+00
     -11     1     3     3     0     0 -2.694170614E+01 -6.719480472E+00 -5.331973607E+01  6.011656347E+01  5.109989100E-04  0.00000E+00  9.000E+00
      21     1     1     2   501   511  1.471047797E+00  3.219108677E+00 -1.417299473E+00  3.812529356E+00  1.545713938E-08  0.00000E+00  9.000E+00
#rwgt            1           7   171.10369394272445         54217137        3451           0
</event>
<event>
      6  10011  1.22355E+03  5.36565E+00 -1.00000E+00  2.42323E-01
       1    -1     0     0   501     0  0.000000000E+00  0.000000000E+00  2.293672093E+02  2.293672093E+02  1.857783828E-06  0.00000E+00  9.000E+00
      21    -1     0     0   511   501  0.000000000E+00  0.000000000E+00 -1.099606601E+01  1.099606601E+01  8.006793210E-08  0.00000E+00  9.000E+00
      23     2     1     2     0     0  3.995516170E+00  3.581344648E+00  2.147661749E+02  2.338990680E+02  9.249580506E+01  0.00000E+00  9.000E+00
      11     1     3     3     0     0 -4.239805487E+01 -5.588231179E+00  7.482937228E+01  8.618734443E+01  5.109989100E-04  0.00000E+00  9.000E+00
     -11     1     3     3     0     0  4.639357104E+01  9.169575828E+00  1.399368026E+02  1.477117236E+02  5.109989100E-04  0.00000E+00  9.000E+00
       1     1     1     2   511     0 -3.995516170E+00 -3.581344648E+00  3.604968405E+00  6.464207310E+00  0.000000000E+00  0.00000E+00  9.000E+00
#rwgt            1           6   302.88091534899758         54217137        3583           0
</event>
<event>
      6  10011  1.22355E+03  1.23567E+01 -1.00000E+00  1.91262E-01
      -2    -1     0     0     0   511  0.000000000E+00  0.000000000E+00  9.331328949E+00  9.331328949E+00  3.006754248E-08  0.00000E+00  9.000E+00
       2    -1     0     0   501     0  0.000000000E+00  0.000000000E+00 -5.165719605E+02  5.165719605E+02  5.029674230E-06  0.00000E+00  9.000E+00
      23     2     1     2     0     0  9.949639866E+00  7.327568381E+00 -5.056516003E+02  5.134448139E+02  8.825728000E+01  0.00000E+00  9.000E+00
      11     1     3     3     0     0  2.629744163E+01  1.769527827E+00 -4.275479339E+01  5.022607912E+01  5.109989100E-04  0.00000E+00  9.000E+00
     -11     1     3     3     0     0 -1.634780177E+01  5.558040555E+00 -4.628968069E+02  4.632187348E+02  5.109989100E-04  0.00000E+00  9.000E+00
      21     1     1     2   501   511 -9.949639866E+00 -7.327568381E+00 -1.589031246E+00  1.245847551E+01  2.597840898E-07  0.00000E+00  9.000E+00
#rwgt            1           4   504.93049306704023         54217137        3692           0
</event>
<event>
      6  10011  1.22355E+03  2.25502E+00 -1.00000E+00  3.60999E-01
       1    -1     0     0   501     0  0.000000000E+00  0.000000000E+00  7.405397194E+02  7.405397194E+02  5.570053365E-06  0.00000E+00  9.000E+00
      -1    -1     0     0     0   511  0.000000000E+00  0.000000000E+00 -3.039332287E+00  3.039332287E+00  1.391681828E-08  0.00000E+00  9.000E+00
      23     2     1     2     0     0  2.063749844E+00 -9.088636421E-01  7.320083603E+02  7.376420949E+02  9.096447458E+01  0.00000E+00  9.000E+00
      11     1     3     3     0     0 -8.811288874E+00  2.570390864E+01  6.530115377E+02  6.535766199E+02  5.109989100E-04  0.00000E+00  9.000E+00
     -11     1     3     3     0     0  1.087503872E+01 -2.661277228E+01  7.899682258E+01  8.406547504E+01  5.109989100E-04  0.00000E+00  9.000E+00
      21     1     1     2   501   511 -2.063749844E+00  9.088636421E-01  5.492026884E+00  5.936956782E+00  3.257018173E-08  0.00000E+00  9.000E+00
#rwgt            1           6   459.41536036327278         54217137        3753           0
</event>
<event>
      6  10011  1.22355E+03  7.98642E+00 -1.00000E+00  2.14823E-01
      21    -1     0     0   501   511  0.000000000E+00  0.000000000E+00  1.528499307E+01  1.528499307E+01  5.470506614E-08  0.00000E+00  9.000E+00
      -3    -1     0     0     0   501  0.000000000E+00  0.000000000E+00 -1.669583958E+02  1.669583958E+02  5.935260203E-07  0.00000E+00  9.000E+00
      23     2     1     2     0     0  1.376055503E+00  7.866981201E+00 -1.458125501E+02  1.723372031E+02  9.151518399E+01  0.00000E+00  9.000E+00
      11     1     3     3     0     0  2.503711915E+01 -3.018849548E+01 -1.035969337E+02  1.107724120E+02  5.109989100E-04  0.00000E+00  9.000E+00
     -11     1     3     3     0     0 -2.366106365E+01  3.805547668E+01 -4.221561642E+01  6.156479114E+01  5.109989100E-04  0.00000E+00  9.000E+00
      -3     1     1     2     0   511 -1.376055503E+00 -7.866981201E+00 -5.860852626E+00  9.906185717E+00  0.000000000E+00  0.00000E+00  9.000E+00
#rwgt            1           8   89.723163071901055         54217137        3867           0
</event>
<event>
      6  10011  1.22355E+03  6.32701E+00 -1.00000E+00  2.30076E-01
      -2    -1     0     0     0   501  0.000000000E+00  0.000000000E+00  4.538428933E+00  4.538428933E+00  2.009512674E-08  0.00000E+00  9.000E+00
       2    -1     0     0   511     0  0.000000000E+00  0.000000000E+00 -7.332782192E+02  7.332782192E+02  6.476307032E-06  0.00000E+00  9.000E+00
      23     2     1     2     0     0 -6.300482278E+00 -5.787462625E-01 -5.256043694E+02  5.345827183E+02  9.735860799E+01  0.00000E+00  9.000E+00
      11     1     3     3     0     0 -1.550955293E+01  4.016956093E+01 -3.978032103E+02  4.001268973E+02  5.109989100E-04  0.00000E+00  9.000E+00
     -11     1     3     3     0     0  9.209070655E+00 -4.074830719E+01 -1.278011592E+02  1.344558211E+02  5.109989100E-04  0.00000E+00  9.000E+00
      21     1     1     2   511   501  6.300482278E+00  5.787462625E-01 -2.031354208E+02  2.032339298E+02  1.899062131E-06  0.00000E+00  9.000E+00
#rwgt            1           4   704.34554082656257         54217137        3938           0
</event>
<event>
      6  10011  1.22355E+03  2.20442E+01 -1.00000E+00  1.67182E-01
       4    -1     0     0   501     0  0.000000000E+00  0.000000000E+00  3.410936338E+01  3.410936338E+01  1.585950727E-07  0.00000E+00  9.000E+00
      21    -1     0     0   511   501  0.000000000E+00  0.000000000E+00 -1.212025018E+02  1.212025018E+02  5.957323350E-07  0.00000E+00  9.000E+00
      23     2     1     2     0     0  2.202751599E+01  8.573938502E-01 -3.599528536E+01  9.966173336E+01  9.028207986E+01  0.00000E+00  9.000E+00
      11     1     3     3     0     0  1.284364177E+01  3.840110189E+01 -4.441735494E+01  6.010411950E+01  5.109989100E-04  0.00000E+00  9.000E+00
     -11     1     3     3     0     0  9.183874217E+00 -3.754370804E+01  8.422069568E+00  3.955761387E+01  5.109989100E-04  0.00000E+00  9.000E+00
       4     1     1     2   511     0 -2.202751599E+01 -8.573938502E-01 -5.109785301E+01  5.565013178E+01  0.000000000E+00  0.00000E+00  9.000E+00
#rwgt            1           9   45.167242954902953         54217137        4017           0
</event>
<event>
      6  10011  1.22355E+03  3.45599E+01 -1.00000E+00  1.52391E-01
       2    -1     0     0   501     0  0.000000000E+00  0.000000000E+00  5.571342970E+02  5.571342970E+02  3.711933411E-06  0.00000E+00  9.000E+00
      21    -1     0     0   511   501  0.000000000E+00  0.000000000E+00 -8.309009936E+00  8.309009936E+00  7.988764539E-08  0.00000E+00  9.000E+00
      23     2     1     2     0     0  8.932299888E+00 -3.338560873E+01  4.306624069E+02  4.423301432E+02  9.482331971E+01  0.00000E+00  9.000E+00
      11     1     3     3     0     0 -1.437745937E+01  9.561039195E+00  3.298271096E+02  3.302787415E+02  5.109989100E-04  0.00000E+00  9.000E+00
     -11     1     3     3     0     0  2.330975926E+01 -4.294664793E+01  1.008352973E+02  1.120514017E+02  5.109989100E-04  0.00000E+00  9.000E+00
       2     1     1     2   511     0 -8.932299888E+00  3.338560873E+01  1.181628801E+02  1.231131638E+02  0.000000000E+00  0.00000E+00  9.000E+00
#rwgt            1           7   708.42032855391915         54217137        4062           0
</event>
<event>
      6  10011  1.22355E+03  1.08815E+01 -1.00000E+00  1.97552E-01
      21    -1     0     0   511   501  0.000000000E+00  0.000000000E+00  4.188872599E+00  4.188872599E+00  2.284979138E-08  0.00000E+00  9.000E+00
       2    -1     0     0   501     0  0.000000000E+00  0.000000000E+00 -5.150762012E+02  5.150762012E+02  4.367810734E-06  0.00000E+00  9.000E+00
      23     2     1     2     0     0 -9.580766349E+00  5.159116589E+00 -4.856912180E+02  4.918196451E+02  7.663025828E+01  0.00000E+00  9.000E+00
      11     1     3     3     0     0 -1.086414740E+00  3.042054482E+01 -4.174561914E+02  4.185645250E+02  5.109989100E-04  0.00000E+00  9.000E+00
     -11     1     3     3     0     0 -8.494351609E+00 -2.526142823E+01 -6.823502665E+01  7.325512014E+01  5.109989100E-04  0.00000E+00  9.000E+00
       2     1     1     2   511     0  9.580766349E+00 -5.159116589E+00 -2.519611060E+01  2.744542871E+01  0.000000000E+00  0.00000E+00  9.000E+00
#rwgt            1           4   133.23771869169050         54217137        4131           0
</event>
<event>
      6  10011  1.22355E+03  4.93233E+01 -1.00000E+00  1.42467E-01
      -2    -1     0     0     0   511  0.000000000E+00  0.000000000E+00  6.207027555E+00  6.207027555E+00  4.805607791E-08  0.00000E+00  9.000E+00
       2    -1     0     0   501     0  0.000000000E+00  0.000000000E+00 -1.091126693E+03  1.091126693E+03  7.514508861E-06  0.00000E+00  9.000E+00
      23     2     1     2     0     0  4.907198417E+00  4.907862426E+01 -8.965686208E+02  9.026316199E+02  9.206387785E+01  0.00000E+00  9.000E+00
      11     1     3     3     0     0 -2.606316024E+01  5.744011564E+01 -3.918238671E+02  3.968684896E+02  5.109989100E-04  0.00000E+00  9.000E+00
     -11     1     3     3     0     0  3.097035866E+01 -8.361491377E+00 -5.047447537E+02  5.057631304E+02  5.109989100E-04  0.00000E+00  9.000E+00
      21     1     1     2   501   511 -4.907198417E+00 -4.907862426E+01 -1.883510447E+02  1.947021007E+02  3.178176332E-06  0.00000E+00  9.000E+00
#rwgt            1           4   504.07644259472846         54217137        4229           0
</event>
<event>
      6  10011  1.22355E+03  1.82065E+01 -1.00000E+00  1.74415E-01
      -2    -1     0     0     0   511  0.000000000E+00  0.000000000E+00  2.144886034E+00  2.144886034E+00  1.294303045E-08  0.00000E+00  9.000E+00
       2    -1     0     0   501     0  0.000000000E+00  0.000000000E+00 -1.591943962E+03  1.591943962E+03  1.512203549E-05  0.00000E+00  9.000E+00
      23     2     1     2     0     0 -1.680091559E+01 -7.014699571E+00 -1.466474519E+03  1.469427614E+03  9.131551269E+01  0.00000E+00  9.000E+00
      11     1     3     3     0     0  4.920703880E+00  3.925024771E+01 -4.786826761E+02  4.803143759E+02  5.109989100E-04  0.00000E+00  9.000E+00
     -11     1     3     3     0     0 -2.172161947E+01 -4.626494728E+01 -9.877918427E+02  9.891132385E+02  5.109989100E-04  0.00000E+00  9.000E+00
      21     1     1     2   501   511  1.680091559E+01  7.014699571E+00 -1.233245573E+02  1.246612338E+02  2.202234784E-06  0.00000E+00  9.000E+00
#rwgt            1           4   2109.9697162074685         54217137        4272           0
</event>
<event>
      6  10011  1.22355E+03  3.13471E+01 -1.00000E+00  1.55367E-01
      -1    -1     0     0     0   511  0.000000000E+00  0.000000000E+00  6.778916908E+02  6.778916908E+02  3.641723271E-06  0.00000E+00  9.000E+00
       1    -1     0     0   501     0  0.000000000E+00  0.000000000E+00 -6.238534343E+00  6.238534343E+00  4.172130425E-08  0.00000E+00  9.000E+00
      23     2     1     2     0     0  2.034039212E+00 -3.128102801E+01  4.441580304E+02  4.544855596E+02  9.109406070E+01  0.00000E+00  9.000E+00
      11     1     3     3     0     0 -4.645697292E+00 -3.659999426E+01  4.444142063E+02  4.459429659E+02  5.109989100E-04  0.00000E+00  9.000E+00
     -11     1     3     3     0     0  6.679736505E+00  5.318966240E+00 -2.561758491E-01  8.542593749E+00  5.109989100E-04  0.00000E+00  9.000E+00
      21     1     1     2   501   511 -2.034039212E+00  3.128102801E+01  2.274951260E+02  2.296446655E+02  4.050048923E-06  0.00000E+00  9.000E+00
#rwgt            1           5   110.05848654691216         54217137        4323           0
</event>
<event>
      6  10011  1.22355E+03  6.44629E+00 -1.00000E+00  2.28769E-01
      -2    -1     0     0     0   511  0.000000000E+00  0.000000000E+00  8.731106203E+00  8.731106203E+00  6.404720473E-08  0.00000E+00  9.000E+00
       2    -1     0     0   501     0  0.000000000E+00  0.000000000E+00 -2.941238254E+02  2.941238254E+02  1.887177379E-06  0.00000E+00  9.000E+00
      23     2     1     2     0     0  4.916904050E+00  4.168777172E+00 -2.824984536E+02  2.957887146E+02  8.743015940E+01  0.00000E+00  9.000E+00
      11     1     3     3     0     0  2.109206900E+01 -1.075618119E+01 -2.688518851E+02  2.698923988E+02  5.109989100E-04  0.00000E+00  9.000E+00
     -11     1     3     3     0     0 -1.617516495E+01  1.492495836E+01 -1.364656856E+01  2.589631590E+01  5.109989100E-04  0.00000E+00  9.000E+00
      21     1     1     2   501   511 -4.916904050E+00 -4.168777172E+00 -2.894265566E+00  7.066216931E+00  1.469877199E-07  0.00000E+00  9.000E+00
#rwgt            1           4   384.15805571226122         54217137        4387           0
</event>
<event>
      6  10011  1.22355E+03  8.00270E+00 -1.00000E+00  2.14699E-01
       1    -1     0     0   501     0  0.000000000E+00  0.000000000E+00  6.004841013E+02  6.004841013E+02  4.663841842E-06  0.00000E+00  9.000E+00
      -1    -1     0     0     0   511  0.000000000E+00  0.000000000E+00 -4.175961336E+00  4.175961336E+00  1.214255396E-08  0.00000E+00  9.000E+00
      23     2     1     2     0     0 -7.434259543E+00 -2.962257663E+00  5.634501778E+02  5.708415934E+02  9.121391714E+01  0.00000E+00  9.000E+00
      11     1     3     3     0     0 -3.260514648E+01 -3.642557706E+01  2.654783789E+02  2.699420085E+02  5.109989100E-04  0.00000E+00  9.000E+00
     -11     1     3     3     0     0  2.517088693E+01  3.346331940E+01  2.979717989E+02  3.008995850E+02  5.109989100E-04  0.00000E+00  9.000E+00
      21     1     1     2   501   511  7.434259543E+00  2.962257663E+00  3.285796215E+01  3.381846925E+01  7.520488987E-07  0.00000E+00  9.000E+00
#rwgt            1           6   360.51019732463317         54217137        4539           0
</event>
<event>
      6  10011  1.22355E+03  7.37593E+00 -1.00000E+00  2.19787E-01
       2    -1     0     0   501     0  0.000000000E+00  0.000000000E+00  3.132201229E+02  3.132201229E+02  2.616792221E-06  0.00000E+00  9.000E+00
      -2    -1     0     0     0   511  0.000000000E+00  0.000000000E+00 -6.779441748E+00  6.779441748E+00  1.661447490E-08  0.00000E+00  9.000E+00
      23     2     1     2     0     0 -7.355000915E+00  5.553114171E-01  2.946123001E+02  3.060598728E+02  8.259439439E+01  0.00000E+00  9.000E+00
      11     1     3     3     0     0  1.914933949E+01 -1.500133394E+01  2.538372135E+02  2.550001337E+02  5.109989100E-04  0.00000E+00  9.000E+00
     -11     1     3     3     0     0 -2.650434040E+01  1.555664535E+01  4.077508658E+01  5.105973914E+01  5.109989100E-04  0.00000E+00  9.000E+00
      21     1     1     2   501   511  7.355000915E+00 -5.553114171E-01  1.182838103E+01  1.393969178E+01  3.726512294E-07  0.00000E+00  9.000E+00
#rwgt            1           7   255.07147051207679         54217137        4635           0
</event>
<event>
      6  10011  1.22355E+03  1.04533E+01 -1.00000E+00  1.99629E-01
      21    -1     0     0   511   501  0.000000000E+00  0.000000000E+00  2.007939670E+01  2.007939670E+01  1.262436055E-07  0.00000E+00  9.000E+00
       2    -1     0     0   501     0  0.000000000E+00  0.000000000E+00 -3.141368106E+02  3.141368106E+02  2.667346888E-06  0.00000E+00  9.000E+00
      23     2     1     2     0     0 -5.994099846E+00  8.563997164E+00 -3.053973726E+02  3.187933041E+02  9.084241464E+01  0.00000E+00  9.000E+00
      11     1     3     3     0     0  3.594496580E+01 -1.416657838E+01 -1.906480844E+02  1.945235836E+02  5.109989100E-04  0.00000E+00  9.000E+00
     -11     1     3     3     0     0 -4.193906564E+01  2.273057554E+01 -1.147492882E+02  1.242697205E+02  5.109989100E-04  0.00000E+00  9.000E+00
       2     1     1     2   511     0  5.994099846E+00 -8.563997164E+00  1.133995866E+01  1.542290319E+01  0.000000000E+00  0.00000E+00  9.000E+00
#rwgt            1           4   489.05644827274870         54217137        4739           0
</event>
<event>
      6  10011  1.22355E+03  2.55527E+00 -1.00000E+00  3.37685E-01
       1    -1     0     0   511     0  0.000000000E+00  0.000000000E+00  8.048511804E+02  8.048511804E+02  7.434731897E-06  0.00000E+00  9.000E+00
      -1    -1     0     0     0   501  0.000000000E+00  0.000000000E+00 -3.138475020E+00  3.138475020E+00  2.954122207E-08  0.00000E+00  9.000E+00
      23     2     1     2     0     0  2.548156258E+00  1.905029506E-01  6.901522456E+02  6.963999356E+02  9.303880240E+01  0.00000E+00  9.000E+00
      11     1     3     3     0     0 -1.074642965E+01  4.349758736E+01  4.305057159E+02  4.328310262E+02  5.109989100E-04  0.00000E+00  9.000E+00
     -11     1     3     3     0     0  1.329458591E+01 -4.330708441E+01  2.596465298E+02  2.635689094E+02  5.109989100E-04  0.00000E+00  9.000E+00
      21     1     1     2   511   501 -2.548156258E+00 -1.905029506E-01  1.115604598E+02  1.115897199E+02  9.031006148E-07  0.00000E+00  9.000E+00
#rwgt            1           6   436.67840067399391         54217137        4786           0
</event>
<event>
      6  10011  1.22355E+03  3.47765E+01 -1.00000E+00  1.52204E-01
      21    -1     0     0   511   501  0.000000000E+00  0.000000000E+00  1.396855168E+02  1.396855168E+02  5.816519126E-07  0.00000E+00  9.000E+00
       2    -1     0     0   501     0  0.000000000E+00  0.000000000E+00 -7.701958240E+01  7.701958240E+01  3.373516764E-07  0.00000E+00  9.000E+00
      23     2     1     2     0     0 -3.287685184E+01  1.133670776E+01 -4.194085272E+01  1.064690423E+02  9.147247405E+01  0.00000E+00  9.000E+00
      11     1     3     3     0     0 -5.492624021E+01  2.320361586E+01 -5.235526868E+01  7.934969320E+01  5.109989100E-04  0.00000E+00  9.000E+00
     -11     1     3     3     0     0  2.204938837E+01 -1.186690810E+01  1.041441595E+01  2.711934909E+01  5.109989100E-04  0.00000E+00  9.000E+00
       2     1     1     2   511     0  3.287685184E+01 -1.133670776E+01  1.046067871E+02  1.102360569E+02  0.000000000E+00  0.00000E+00  9.000E+00
#rwgt            1           4   226.87000850349139         54217137        4978           0
</event>
<event>
      6  10011  1.22355E+03  1.92705E+01 -1.00000E+00  1.72201E-01
       2    -1     0     0   501     0  0.000000000E+00  0.000000000E+00  9.609284924E+02  9.609284924E+02  7.134717738E-06  0.00000E+00  9.000E+00
      21    -1     0     0   511   501  0.000000000E+00  0.000000000E+00 -4.333379251E+00  4.333379251E+00  2.550052372E-08  0.00000E+00  9.000E+00
      23     2     1     2     0     0 -1.610603475E+01  1.058058089E+01  9.049459090E+02  9.101348063E+02  9.511526868E+01  0.00000E+00  9.000E+00
      11     1     3     3     0     0 -5.115375276E+01  2.637744781E+01  6.060752546E+02  6.088018482E+02  5.109989100E-04  0.00000E+00  9.000E+00
     -11     1     3     3     0     0  3.504771801E+01 -1.579686692E+01  2.988706545E+02  3.013329581E+02  5.109989100E-04  0.00000E+00  9.000E+00
       2     1     1     2   511     0  1.610603475E+01 -1.058058089E+01  5.164920411E+01  5.512706533E+01  0.000000000E+00  0.00000E+00  9.000E+00
#rwgt            1           7   942.33444281803895         54217137        5024           0
</event>
<event>
      6  10011  1.22355E+03  9.81643E+00 -1.00000E+00  2.02973E-01
       4    -1     0     0   501     0  0.000000000E+00  0.000000000E+00  6.576622296E+01  6.576622296E+01  6.490829001E-07  0.00000E+00  9.000E+00
      -4    -1     0     0     0   511  0.000000000E+00  0.000000000E+00 -4.139864573E+01  4.139864573E+01  7.355953130E-08  0.00000E+00  9.000E+00
      23     2     1     2     0     0  6.317172854E+00  7.513701390E+00  2.648443989E+01  9.712278280E+01  9.292495359E+01  0.00000E+00  9.000E+00
      11     1     3     3     0     0  4.803289135E+01  1.509042907E+01  2.025585631E+01  5.426950724E+01  5.109989100E-04  0.00000E+00  9.000E+00
     -11     1     3     3     0     0 -4.171571850E+01 -7.576727681E+00  6.228583589E+00  4.285327556E+01  5.109989100E-04  0.00000E+00  9.000E+00
      21     1     1     2   501   511 -6.317172854E+00 -7.513701390E+00 -2.116862662E+00  1.004208589E+01  9.428737188E-08  0.00000E+00  9.000E+00
#rwgt            1           9   62.276956751248207         54217137        5074           0
</event>
<event>
      6  10011  1.22355E+03  2.61516E+01 -1.00000E+00  1.61225E-01
      -1    -1     0     0     0   501  0.000000000E+00  0.000000000E+00  2.191648386E+02  2.191648386E+02  1.830369446E-06  0.00000E+00  9.000E+00
      21    -1     0     0   501   511  0.000000000E+00  0.000000000E+00 -1.895600803E+01  1.895600803E+01  1.077555954E-07  0.00000E+00  9.000E+00
      23     2     1     2     0     0  2.370813347E+01  1.103770797E+01  1.713157554E+02  1.991501348E+02  9.812125938E+01  0.00000E+00  9.000E+00
      11     1     3     3     0     0  4.394991524E+01 -2.815081298E+01  6.063346911E+01  8.000300555E+01  5.109989100E-04  0.00000E+00  9.000E+00
     -11     1     3     3     0     0 -2.024178177E+01  3.918852095E+01  1.106822863E+02  1.191471292E+02  5.109989100E-04  0.00000E+00  9.000E+00
      -1     1     1     2     0   511 -2.370813347E+01 -1.103770797E+01  2.889307517E+01  3.897071186E+01  0.000000000E+00  0.00000E+00  9.000E+00
#rwgt            1           5   248.50062605209075         54217137        5137           0
</event>
<event>
      6  10011  1.22355E+03  6.56502E+00 -1.00000E+00  2.27507E-01
       5    -1     0     0   501     0  0.000000000E+00  0.000000000E+00  1.781297420E+01  1.781297420E+01  6.062331705E-08  0.00000E+00  9.000E+00
      21    -1     0     0   511   501  0.000000000E+00  0.000000000E+00 -1.349894744E+02  1.349894744E+02  1.080686027E-06  0.00000E+00  9.000E+00
      23     2     1     2     0     0 -8.248801793E-01 -6.512988052E+00 -1.086506654E+02  1.420419050E+02  9.125697907E+01  0.00000E+00  9.000E+00
      11     1     3     3     0     0  2.033049752E+01 -3.415242840E+01 -9.782475212E+01  1.055907175E+02  5.109989100E-04  0.00000E+00  9.000E+00
     -11     1     3     3     0     0 -2.115537770E+01  2.763944035E+01 -1.082591330E+01  3.645118747E+01  5.109989100E-04  0.00000E+00  9.000E+00
       5     1     1     2   511     0  8.248801793E-01  6.512988052E+00 -8.525834775E+00  1.076054363E+01  0.000000000E+00  0.00000E+00  9.000E+00
#rwgt            1          10   23.048676890086405         54217137        5180           0
</event>
<event>
      6  10011  1.22355E+03  8.52731E+00 -1.00000E+00  2.10906E-01
       2    -1     0     0   501     0  0.000000000E+00  0.000000000E+00  3.888048430E+02  3.888048430E+02  2.638840388E-06  0.00000E+00  9.000E+00
      21    -1     0     0   511   501  0.000000000E+00  0.000000000E+00 -1.470920541E+01  1.470920541E+01  8.279955746E-08  0.00000E+00  9.000E+00
      23     2     1     2     0     0 -8.386692124E+00 -1.542208408E+00  3.817436894E+02  3.920594551E+02  8.893625203E+01  0.00000E+00  9.000E+00
      11     1     3     3     0     0 -8.363562059E+00  2.340600580E+00  3.861149943E+02  3.862126570E+02  5.109989100E-04  0.00000E+00  9.000E+00
     -11     1     3     3     0     0 -2.313006538E-02 -3.882808988E+00 -4.371304947E+00  5.846798084E+00  5.109989100E-04  0.00000E+00  9.000E+00
       2     1     1     2   511     0  8.386692124E+00  1.542208408E+00 -7.648051802E+00  1.145459331E+01  0.000000000E+00  0.00000E+00  9.000E+00
#rwgt            1           7   453.23993552999707         54217137        5311           0
</event>
<event>
      6  10011  1.22355E+03  7.38656E+00 -1.00000E+00  2.19695E-01
      -1    -1     0     0     0   501  0.000000000E+00  0.000000000E+00  1.141439865E+02  1.141439865E+02  9.402172564E-07  0.00000E+00  9.000E+00
       1    -1     0     0   511     0  0.000000000E+00  0.000000000E+00 -2.566725654E+01  2.566725654E+01  1.146155648E-07  0.00000E+00  9.000E+00
      23     2     1     2     0     0 -5.417197875E+00 -5.021480546E+00  9.318471239E+01  1.310518825E+02  9.185120561E+01  0.00000E+00  9.000E+00
      11     1     3     3     0     0 -3.806580159E+01 -2.401121667E+01  7.858220148E+01  9.055775045E+01  5.109989100E-04  0.00000E+00  9.000E+00
     -11     1     3     3     0     0  3.264860371E+01  1.898973612E+01  1.460251092E+01  4.049413202E+01  5.109989100E-04  0.00000E+00  9.000E+00
      21     1     1     2   511   501  5.417197875E+00  5.021480546E+00 -4.707982410E+00  8.759360597E+00  8.804197218E-08  0.00000E+00  9.000E+00
#rwgt            1           5   151.37349796910729         54217137        5411           0
</event>
<event>
      6  10011  1.22355E+03  1.46318E+01 -1.00000E+00  1.83518E-01
      -2    -1     0     0     0   511  0.000000000E+00  0.000000000E+00  3.905983554E+00  3.905983554E+00  1.757062360E-08  0.00000E+00  9.000E+00
       2    -1     0     0   501     0  0.000000000E+00  0.000000000E+00 -7.597774010E+02  7.597774010E+02  3.391095840E-06  0.00000E+00  9.000E+00
      23     2     1     2     0     0  6.685463718E+00 -1.301511791E+01 -6.982341274E+02  7.042178826E+02  9.043141481E+01  0.00000E+00  9.000E+00
      11     1     3     3     0     0 -1.903043692E+01  1.807001670E+01 -5.489968118E+02  5.496236734E+02  5.109989100E-04  0.00000E+00  9.000E+00
     -11     1     3     3     0     0  2.571590064E+01 -3.108513461E+01 -1.492373156E+02  1.545942092E+02  5.109989100E-04  0.00000E+00  9.000E+00
      21     1     1     2   501   511 -6.685463718E+00  1.301511791E+01 -5.763729010E+01  5.946550201E+01  9.853616416E-07  0.00000E+00  9.000E+00
#rwgt            1           4   508.03094179321903         54217137        5501           0
</event>
<event>
      6  10011  1.22355E+03  5.74628E+00 -1.00000E+00  2.37067E-01
      -1    -1     0     0     0   511  0.000000000E+00  0.000000000E+00  9.529802146E+00  9.529802146E+00  3.481060735E-08  0.00000E+00  9.000E+00
       1    -1     0     0   501     0  0.000000000E+00  0.000000000E+00 -3.032079670E+02  3.032079670E+02  2.385599166E-06  0.00000E+00  9.000E+00
      23     2     1     2     0     0 -5.741881491E+00  2.248389966E-01 -2.994915983E+02  3.045636781E+02  5.505267259E+01  0.00000E+00  9.000E+00
      11     1     3     3     0     0  2.005658803E+01 -5.154301053E-01 -5.210203480E+01  5.583148236E+01  5.109989100E-04  0.00000E+00  9.000E+00
     -11     1     3     3     0     0 -2.579846952E+01  7.402691019E-01 -2.473895635E+02  2.487321957E+02  5.109989100E-04  0.00000E+00  9.000E+00
      21     1     1     2   501   511  5.741881491E+00 -2.248389966E-01  5.813433508E+00  8.174091068E+00  1.742071810E-07  0.00000E+00  9.000E+00
#rwgt            1           5   198.85131130279464         54217137        5555           0
</event>
<event>
      6  10011  1.22355E+03  4.96387E+00 -1.00000E+00  2.53002E-01
       1    -1     0     0   511     0  0.000000000E+00  0.000000000E+00  2.095225841E+02  2.095225841E+02  1.428139323E-06  0.00000E+00  9.000E+00
      -1    -1     0     0     0   501  0.000000000E+00  0.000000000E+00 -1.489315924E+01  1.489315924E+01  9.308529224E-08  0.00000E+00  9.000E+00
      23     2     1     2     0     0  2.270821984E+00  4.414002023E+00  1.415644355E+02  1.711190911E+02  9.600319728E+01  0.00000E+00  9.000E+00
      11     1     3     3     0     0  2.882139102E+01  2.870815033E+01  1.250921110E+02  1.315403615E+02  5.109989100E-04  0.00000E+00  9.000E+00
     -11     1     3     3     0     0 -2.655056904E+01 -2.429414831E+01  1.647232449E+01  3.957872955E+01  5.109989100E-04  0.00000E+00  9.000E+00
      21     1     1     2   511   501 -2.270821984E+00 -4.414002023E+00  5.306498933E+01  5.329665223E+01  3.743455323E-07  0.00000E+00  9.000E+00
#rwgt            1           6   384.12350706591747         54217137        5655           0
</event>
<event>
      6  10011  1.22355E+03  3.08820E+01 -1.00000E+00  1.55834E-01
      -1    -1     0     0     0   501  0.000000000E+00  0.000000000E+00  7.410930651E+00  7.410930651E+00  4.181643080E-08  0.00000E+00  9.000E+00
       1    -1     0     0   511     0  0.000000000E+00  0.000000000E+00 -1.701896178E+03  1.701896178E+03  9.886019225E-06  0.00000E+00  9.000E+00
      23     2     1     2     0     0  3.080288002E+01 -2.208772818E+00 -3.054984642E+02  3.199770615E+02  9.001284450E+01  0.00000E+00  9.000E+00
      11     1     3     3     0     0  1.411889516E+01  3.045399818E+01 -2.569411826E+02  2.591246043E+02  5.109989100E-04  0.00000E+00  9.000E+00
     -11     1     3     3     0     0  1.668398486E+01 -3.266277100E+01 -4.855728156E+01  6.085245725E+01  5.109989100E-04  0.00000E+00  9.000E+00
      21     1     1     2   511   501 -3.080288002E+01  2.208772818E+00 -1.388986783E+03  1.389330047E+03  2.396449824E-05  0.00000E+00  9.000E+00
#rwgt            1           5   457.17508099175387         54217137        5748           0
</event>
<event>
      6  10011  1.22355E+03  2.88694E+00 -1.00000E+00  3.17825E-01
       1    -1     0     0   501     0  0.000000000E+00  0.000000000E+00  5.349969981E+01  5.349969981E+01  4.299097584E-07  0.00000E+00  9.000E+00
      -1    -1     0     0     0   511  0.000000000E+00  0.000000000E+00 -5.027131658E+01  5.027131658E+01  3.569513096E-07  0.00000E+00  9.000E+00
      23     2     1     2     0     0  1.505871031E+00  2.463088176E+00  1.221250507E+01  9.433444413E+01  9.349602996E+01  0.00000E+00  9.000E+00
      11     1     3     3     0     0 -1.050780390E+01 -2.885011268E+01  4.024715714E+01  5.062189845E+01  5.109989100E-04  0.00000E+00  9.000E+00
     -11     1     3     3     0     0  1.201367494E+01  3.131320086E+01 -2.803465206E+01  4.371254568E+01  5.109989100E-04  0.00000E+00  9.000E+00
      21     1     1     2   501   511 -1.505871031E+00 -2.463088176E+00 -8.984121838E+00  9.436572266E+00  1.954416805E-07  0.00000E+00  9.000E+00
#rwgt            1           6   255.58001413693162         54217137        5804           0
</event>
<event>
      6  10011  1.22355E+03  4.91323E+01 -1.00000E+00  1.42568E-01
      21    -1     0     0   501   511  0.000000000E+00  0.000000000E+00  2.827130436E+02  2.827130436E+02  1.834517929E-06  0.00000E+00  9.000E+00
      -3    -1     0     0     0   501  0.000000000E+00  0.000000000E+00 -3.106540777E+01  3.106540777E+01  1.820013989E-07  0.00000E+00  9.000E+00
      23     2     1     2     0     0  4.875675915E+01  6.062785688E+00  6.981341969E+01  1.254233052E+02  9.188641348E+01  0.00000E+00  9.000E+00
      11     1     3     3     0     0  5.614673722E+00 -6.268907562E+00  7.914678279E+01  7.959294560E+01  5.109989100E-04  0.00000E+00  9.000E+00
     -11     1     3     3     0     0  4.314208543E+01  1.233169325E+01 -9.333363096E+00  4.583035960E+01  5.109989100E-04  0.00000E+00  9.000E+00
      -3     1     1     2     0   511 -4.875675915E+01 -6.062785688E+00  1.818342162E+02  1.883551462E+02  0.000000000E+00  0.00000E+00  9.000E+00
#rwgt            1           8   133.05763556903665         54217137        5899           0
</event>
<event>
      6  10011  1.22355E+03  1.53073E+01 -1.00000E+00  1.81559E-01
      -1    -1     0     0     0   501  0.000000000E+00  0.000000000E+00  2.139382261E+01  2.139382261E+01  1.429129037E-07  0.00000E+00  9.000E+00
       1    -1     0     0   511     0  0.000000000E+00  0.000000000E+00 -1.466894628E+02  1.466894628E+02  7.872938844E-07  0.00000E+00  9.000E+00
      23     2     1     2     0     0 -1.530372105E+01  3.305914052E-01 -8.529691049E+01  1.252555894E+02  9.043830254E+01  0.00000E+00  9.000E+00
      11     1     3     3     0     0 -1.046037031E+01 -1.069747120E+01  1.677360966E+01  2.247685962E+01  5.109989100E-04  0.00000E+00  9.000E+00
     -11     1     3     3     0     0 -4.843350742E+00  1.102806260E+01 -1.020705202E+02  1.027787298E+02  5.109989100E-04  0.00000E+00  9.000E+00
      21     1     1     2   511   501  1.530372105E+01 -3.305914052E-01 -3.999872975E+01  4.282769606E+01  5.728808733E-07  0.00000E+00  9.000E+00
#rwgt            1           5   210.55831371278217         54217137        5936           0
</event>
<event>
      6  10011  1.22355E+03  1.21087E+01 -1.00000E+00  1.92237E-01
      -1    -1     0     0     0   501  0.000000000E+00  0.000000000E+00  3.367437919E+01  3.367437919E+01  2.082244410E-07  0.00000E+00  9.000E+00
       1    -1     0     0   511     0  0.000000000E+00  0.000000000E+00 -8.023363055E+01  8.023363055E+01  3.038020024E-07  0.00000E+00  9.000E+00
      23     2     1     2     0     0 -1.091629514E+01 -5.239824575E+00 -4.103631833E+01  1.005992138E+02  9.104724667E+01  0.00000E+00  9.000E+00
      11     1     3     3     0     0  2.407316415E+01 -3.406360824E+01 -3.579410147E+01  5.496420962E+01  5.109989100E-04  0.00000E+00  9.000E+00
     -11     1     3     3     0     0 -3.498945929E+01  2.882378367E+01 -5.242216863E+00  4.563500415E+01  5.109989100E-04  0.00000E+00  9.000E+00
      21     1     1     2   511   501  1.091629514E+01  5.239824575E+00 -5.522933038E+00  1.330879598E+01  9.123417147E-08  0.00000E+00  9.000E+00
#rwgt            1           5   292.83501079939680         54217137        6000           0
</event>
<event>
      6  10011  1.22355E+03  1.80748E+01 -1.00000E+00  1.74702E-01
       2    -1     0     0   511     0  0.000000000E+00  0.000000000E+00  8.951404116E+02  8.951404116E+02  5.441264287E-06  0.00000E+00  9.000E+00
      -2    -1     0     0     0   501  0.000000000E+00  0.000000000E+00 -3.122802923E+00  3.122802923E+00  2.797979404E-08  0.00000E+00  9.000E+00
      23     2     1     2     0     0 -8.050870452E+00  1.618280853E+01  7.371388115E+02  7.423332892E+02  8.578102923E+01  0.00000E+00  9.000E+00
      11     1     3     3     0     0 -3.183320101E+01 -1.775675600E+01  1.799052694E+02  1.835607829E+02  5.109989100E-04  0.00000E+00  9.000E+00
     -11     1     3     3     0     0  2.378233056E+01  3.393956453E+01  5.572335422E+02  5.587725063E+02  5.109989100E-04  0.00000E+00  9.000E+00
      21     1     1     2   511   501  8.050870452E+00 -1.618280853E+01  1.548787971E+02  1.559299253E+02  2.587953564E-06  0.00000E+00  9.000E+00
#rwgt            1           7   695.03821368361832         54217137        6069           0
</event>
<event>
      6  10011  1.22355E+03  1.61325E+01 -1.00000E+00  1.79333E-01
      -1    -1     0     0     0   511  0.000000000E+00  0.000000000E+00  1.813206944E+01  1.813206944E+01  6.263896679E-08  0.00000E+00  9.000E+00
       1    -1     0     0   501     0  0.000000000E+00  0.000000000E+00 -1.990727120E+02  1.990727120E+02  1.856170440E-06  0.00000E+00  9.000E+00
      23     2     1     2     0     0  7.930047205E+00 -1.404894124E+01 -1.774201611E+02  2.006925984E+02  9.240858783E+01  0.00000E+00  9.000E+00
      11     1     3     3     0     0 -6.482105481E+00  2.723472321E+01 -1.410954289E+02  1.438459867E+02  5.109989100E-04  0.00000E+00  9.000E+00
     -11     1     3     3     0     0  1.441215269E+01 -4.128366445E+01 -3.632473223E+01  5.684661175E+01  5.109989100E-04  0.00000E+00  9.000E+00
      21     1     1     2   501   511 -7.930047205E+00  1.404894124E+01 -3.520481490E+00  1.651218304E+01  3.404340367E-07  0.00000E+00  9.000E+00
#rwgt            1           5   377.43964957997326         54217137        6126           0
</event>
<event>
      6  10011  1.22355E+03  5.28395E+00 -1.00000E+00  2.43533E-01
       2    -1     0     0   501     0  0.000000000E+00  0.000000000E+00  7.748767917E+02  7.748767917E+02  7.261984748E-06  0.00000E+00  9.000E+00
      21    -1     0     0   511   501  0.000000000E+00  0.000000000E+00 -3.701983146E+00  3.701983146E+00  1.741542067E-08  0.00000E+00  9.000E+00
      23     2     1     2     0     0  3.418491971E+00  4.029151090E+00  7.642880666E+02  7.698984891E+02  9.262566932E+01  0.00000E+00  9.000E+00
      11     1     3     3     0     0 -4.878084931E+00 -3.563111352E+01  5.843127990E+02  5.854184990E+02  5.109989100E-04  0.00000E+00  9.000E+00
     -11     1     3     3     0     0  8.296576903E+00  3.966026461E+01  1.799752677E+02  1.844799901E+02  5.109989100E-04  0.00000E+00  9.000E+00
       2     1     1     2   511     0 -3.418491971E+00 -4.029151090E+00  6.886741921E+00  8.680285719E+00  0.000000000E+00  0.00000E+00  9.000E+00
#rwgt            1           7   800.05131976750181         54217137        6187           0
</event>
<event>
      6  10011  1.22355E+03  8.07087E+00 -1.00000E+00  2.14184E-01
       2    -1     0     0   501     0  0.000000000E+00  0.000000000E+00  6.447543385E+01  6.447543385E+01  3.164609160E-07  0.00000E+00  9.000E+00
      21    -1     0     0   511   501  0.000000000E+00  0.000000000E+00 -4.487028172E+01  4.487028172E+01  2.675181748E-07  0.00000E+00  9.000E+00
      23     2     1     2     0     0 -1.741374371E+00  7.880773800E+00  2.952757140E+01  9.655535261E+01  9.157466716E+01  0.00000E+00  9.000E+00
      11     1     3     3     0     0  2.052075061E+00  4.784707585E+01  2.980538589E+01  5.640846308E+01  5.109989100E-04  0.00000E+00  9.000E+00
     -11     1     3     3     0     0 -3.793449432E+00 -3.996630205E+01 -2.778144845E-01  4.014688953E+01  5.109989100E-04  0.00000E+00  9.000E+00
       2     1     1     2   511     0  1.741374371E+00 -7.880773800E+00 -9.922419266E+00  1.279036295E+01  0.000000000E+00  0.00000E+00  9.000E+00
#rwgt            1           7   238.18989907833017         54217137        6265           0
</event>
<event>
      6  10011  1.22355E+03  1.24156E+01 -1.00000E+00  1.91035E-01
       3    -1     0     0   511     0  0.000000000E+00  0.000000000E+00  6.901539425E+01  6.901539425E+01  1.273539205E-07  0.00000E+00  9.000E+00
      -3    -1     0     0     0   501  0.000000000E+00  0.000000000E+00 -5.632079318E+01  5.632079318E+01  4.509646103E-07  0.00000E+00  9.000E+00
      23     2     1     2     0     0  1.038990423E+01  6.796874908E+00 -1.469502423E+01  9.526395452E+01  9.330128443E+01  0.00000E+00  9.000E+00
      11     1     3     3     0     0  4.367778017E+00 -8.904287958E+00  3.835283820E+01  3.961444215E+01  5.109989100E-04  0.00000E+00  9.000E+00
     -11     1     3     3     0     0  6.022126214E+00  1.570116287E+01 -5.304786243E+01  5.564951238E+01  5.109989100E-04  0.00000E+00  9.000E+00
      21     1     1     2   511   501 -1.038990423E+01 -6.796874908E+00  2.738962529E+01  3.007223291E+01  3.314981474E-07  0.00000E+00  9.000E+00
#rwgt            1           8   144.17408139401564         54217137        6395           0
</event>
<event>
      6  10011  1.22355E+03  4.22023E+01 -1.00000E+00  1.46649E-01
      21    -1     0     0   511   501  0.000000000E+00  0.000000000E+00  7.357870686E+00  7.357870686E+00  4.439494625E-08  0.00000E+00  9.000E+00
       2    -1     0     0   501     0  0.000000000E+00  0.000000000E+00 -7.333077666E+02  7.333077666E+02  3.327343781E-06  0.00000E+00  9.000E+00
      23     2     1     2     0     0  4.206933051E+01 -3.347540909E+00 -5.144310271E+02  5.249777459E+02  9.581919177E+01  0.00000E+00  9.000E+00
      11     1     3     3     0     0  1.511995357E+01 -4.241554551E+00 -4.842556668E+02  4.845102213E+02  5.109989100E-04  0.00000E+00  9.000E+00
     -11     1     3     3     0     0  2.694937694E+01  8.940136417E-01 -3.017536031E+01  4.046752461E+01  5.109989100E-04  0.00000E+00  9.000E+00
       2     1     1     2   511     0 -4.206933051E+01  3.347540909E+00 -2.115188688E+02  2.156878913E+02  0.000000000E+00  0.00000E+00  9.000E+00
#rwgt            1           4   777.52395267543966         54217137        6452           0
</event>
<event>
      6  10011  1.22355E+03  5.90246E+00 -1.00000E+00  2.35075E-01
       2    -1     0     0   501     0  0.000000000E+00  0.000000000E+00  7.550072842E+01  7.550072842E+01  5.510020769E-07  0.00000E+00  9.000E+00
      -2    -1     0     0     0   511  0.000000000E+00  0.000000000E+00 -1.891355143E+02  1.891355143E+02  8.926643501E-07  0.00000E+00  9.000E+00
      23     2     1     2     0     0 -3.466989757E+00  4.776928754E+00  4.862107887E+01  1.022730550E+02  8.978267879E+01  0.00000E+00  9.000E+00
      11     1     3     3     0     0  4.331648772E+00 -4.217753149E+00  7.399691781E+01  7.424349445E+01  5.109989100E-04  0.00000E+00  9.000E+00
     -11     1     3     3     0     0 -7.798638529E+00  8.994681904E+00 -2.537583894E+01  2.802956060E+01  5.109989100E-04  0.00000E+00  9.000E+00
      21     1     1     2   501   511  3.466989757E+00 -4.776928754E+00 -1.622558647E+02  1.623631877E+02  1.694464853E-06  0.00000E+00  9.000E+00
#rwgt            1           7   409.93903153503970         54217137        6494           0
</event>
<event>
      6  10011  1.22355E+03  3.86761E+01 -1.00000E+00  1.49101E-01
       2    -1     0     0   501     0  0.000000000E+00  0.000000000E+00  4.683772217E+02  4.683772217E+02  3.747290841E-06  0.00000E+00  9.000E+00
      21    -1     0     0   511   501  0.000000000E+00  0.000000000E+00 -1.859530875E+01  1.859530875E+01  1.119157231E-07  0.00000E+00  9.000E+00
      23     2     1     2     0     0 -2.894690245E+01 -2.564985863E+01  4.341370691E+02  4.452520373E+02  9.098650209E+01  0.00000E+00  9.000E+00
      11     1     3     3     0     0 -5.497437551E+01 -3.978356555E+01  3.341400630E+02  3.409611353E+02  5.109989100E-04  0.00000E+00  9.000E+00
     -11     1     3     3     0     0  2.602747306E+01  1.413370692E+01  9.999700606E+01  1.042909020E+02  5.109989100E-04  0.00000E+00  9.000E+00
       2     1     1     2   511     0  2.894690245E+01  2.564985863E+01  1.564484388E+01  4.172049315E+01  0.000000000E+00  0.00000E+00  9.000E+00
#rwgt            1           7   490.84084210029727         54217137        6587           0
</event>
<event>
      6  10011  1.22355E+03  1.21063E+01 -1.00000E+00  1.92247E-01
       1    -1     0     0   511     0  0.000000000E+00  0.000000000E+00  1.681850979E+01  1.681850979E+01  1.314112504E-07  0.00000E+00  9.000E+00
      -1    -1     0     0     0   501  0.000000000E+00  0.000000000E+00 -1.696493927E+02  1.696493927E+02  9.014488252E-07  0.00000E+00  9.000E+00
      23     2     1     2     0     0 -1.194985618E+01  1.939711505E+00 -1.467259748E+02  1.729094569E+02  9.067859213E+01  0.00000E+00  9.000E+00
      11     1     3     3     0     0 -4.476085695E+01 -2.225565687E+01 -9.152349706E+01  1.042851816E+02  5.109989100E-04  0.00000E+00  9.000E+00
     -11     1     3     3     0     0  3.281100077E+01  2.419536838E+01 -5.520247774E+01  6.862427538E+01  5.109989100E-04  0.00000E+00  9.000E+00
      21     1     1     2   511   501  1.194985618E+01 -1.939711505E+00 -6.104908143E+00  1.355844559E+01  5.077734000E-08  0.00000E+00  9.000E+00
#rwgt            1           6   161.58911012489656         54217137        6622           0
</event>
<event>
      6  10011  1.22355E+03  1.64449E+01 -1.00000E+00  1.78534E-01
       1    -1     0     0   501     0  0.000000000E+00  0.000000000E+00  2.622910017E+01  2.622910017E+01  7.272174559E-08  0.00000E+00  9.000E+00
      -1    -1     0     0     0   511  0.000000000E+00  0.000000000E+00 -1.260797490E+02  1.260797490E+02  5.773324355E-07  0.00000E+00  9.000E+00
      23     2     1     2     0     0 -1.113310514E+01 -1.210322184E+01 -6.159030688E+01  1.106640683E+02  9.045847720E+01  0.00000E+00  9.000E+00
      11     1     3     3     0     0 -3.168019377E+01  2.868044615E-01 -7.623378321E+01  8.255487046E+01  5.109989100E-04  0.00000E+00  9.000E+00
     -11     1     3     3     0     0  2.054708862E+01 -1.239002630E+01  1.464347633E+01  2.810919782E+01  5.109989100E-04  0.00000E+00  9.000E+00
      21     1     1     2   501   511  1.113310514E+01  1.210322184E+01 -3.826034190E+01  4.164478085E+01  4.598978051E-07  0.00000E+00  9.000E+00
#rwgt            1           6   160.85290371454721         54217137        6688           0
</event>
<event>
      6  10011  1.22355E+03  3.53738E+00 -1.00000E+00  2.89747E-01
      -1    -1     0     0     0   511  0.000000000E+00  0.000000000E+00  5.437596792E+02  5.437596792E+02  5.193321460E-06  0.00000E+00  9.000E+00
       1    -1     0     0   501     0  0.000000000E+00  0.000000000E+00 -4.328167614E+00  4.328167614E+00  2.878388756E-08  0.00000E+00  9.000E+00
      23     2     1     2     0     0 -2.764447149E+00  2.207016738E+00  4.761697443E+02  4.847272574E+02  9.061112287E+01  0.00000E+00  9.000E+00
      11     1     3     3     0     0 -3.651819264E+01  8.445151425E+00  3.925655599E+02  3.943508816E+02  5.109989100E-04  0.00000E+00  9.000E+00
     -11     1     3     3     0     0  3.375374549E+01 -6.238134688E+00  8.360418449E+01  9.037637591E+01  5.109989100E-04  0.00000E+00  9.000E+00
      21     1     1     2   501   511  2.764447149E+00 -2.207016738E+00  6.326176721E+01  6.336058934E+01  1.075267186E-06  0.00000E+00  9.000E+00
#rwgt            1           5   88.981441248580325         54217137        6762           0
</event>
<event>
      6  10011  1.22355E+03  1.07863E+02 -1.00000E+00  1.24698E-01
       3    -1     0     0   501     0  0.000000000E+00  0.000000000E+00  1.701558311E+02  1.701558311E+02  1.314211360E-06  0.00000E+00  9.000E+00
      21    -1     0     0   511   501  0.000000000E+00  0.000000000E+00 -9.504456238E+01  9.504456238E+01  9.064927917E-07  0.00000E+00  9.000E+00
      23     2     1     2     0     0 -1.048012044E+01  1.073526591E+02  6.954603106E+01  1.571939205E+02  9.076812150E+01  0.00000E+00  9.000E+00
      11     1     3     3     0     0  2.338001312E+01  4.688127935E+01  7.055876070E+01  8.788070367E+01  5.109989100E-04  0.00000E+00  9.000E+00
     -11     1     3     3     0     0 -3.386013356E+01  6.047137972E+01 -1.012729629E+00  6.931321686E+01  5.109989100E-04  0.00000E+00  9.000E+00
       3     1     1     2   511     0  1.048012044E+01 -1.073526591E+02  5.565237666E+00  1.080064730E+02  0.000000000E+00  0.00000E+00  9.000E+00
#rwgt            1           8   135.81273420275531         54217137        6885           0
</event>
<event>
      6  10011  1.22355E+03  2.52491E+01 -1.00000E+00  1.62413E-01
       3    -1     0     0   501     0  0.000000000E+00  0.000000000E+00  6.091543043E+01  6.091543043E+01  2.935221926E-07  0.00000E+00  9.000E+00
      -3    -1     0     0     0   511  0.000000000E+00  0.000000000E+00 -8.183866870E+01  8.183866870E+01  3.708823648E-07  0.00000E+00  9.000E+00
      23     2     1     2     0     0  1.966948802E+01 -1.583130936E+01  1.800450974E+01  9.635486766E+01  9.122817019E+01  0.00000E+00  9.000E+00
      11     1     3     3     0     0 -1.310602258E+01 -4.671182276E+01  1.668329578E+01  5.130394304E+01  5.109989100E-04  0.00000E+00  9.000E+00
     -11     1     3     3     0     0  3.277551061E+01  3.088051339E+01  1.321213963E+00  4.505092463E+01  5.109989100E-04  0.00000E+00  9.000E+00
      21     1     1     2   501   511 -1.966948802E+01  1.583130936E+01 -3.892774802E+01  4.639923147E+01  3.392570469E-07  0.00000E+00  9.000E+00
#rwgt            1           8   129.59546857857194         54217137        6925           0
</event>
<event>
      6  10011  1.22355E+03  7.68046E+00 -1.00000E+00  2.17232E-01
       1    -1     0     0   501     0  0.000000000E+00  0.000000000E+00  2.766511309E+01  2.766511309E+01  5.362908675E-08  0.00000E+00  9.000E+00
      21    -1     0     0   511   501  0.000000000E+00  0.000000000E+00 -1.562365703E+02  1.562365703E+02  1.018916932E-06  0.00000E+00  9.000E+00
      23     2     1     2     0     0 -3.491576113E+00  6.840937331E+00 -4.668548920E+01  1.016563110E+02  8.997489167E+01  0.00000E+00  9.000E+00
      11     1     3     3     0     0  2.272945501E+01 -9.550690260E+00 -6.230992700E+01  6.701022916E+01  5.109989100E-04  0.00000E+00  9.000E+00
     -11     1     3     3     0     0 -2.622103112E+01  1.639162759E+01  1.562443780E+01  3.464608181E+01  5.109989100E-04  0.00000E+00  9.000E+00
       1     1     1     2   511     0  3.491576113E+00 -6.840937331E+00 -8.188596797E+01  8.224537238E+01  0.000000000E+00  0.00000E+00  9.000E+00
#rwgt            1           6   171.98232679450570         54217137        6950           0
</event>
<event>
      6  10011  1.22355E+03  1.12674E+00 -1.00000E+00  6.38930E-01
       2    -1     0     0   511     0  0.000000000E+00  0.000000000E+00  7.758590568E+02  7.758590568E+02  6.923595913E-06  0.00000E+00  9.000E+00
      -2    -1     0     0     0   501  0.000000000E+00  0.000000000E+00 -2.866664625E+00  2.866664625E+00  1.872837425E-08  0.00000E+00  9.000E+00
      23     2     1     2     0     0  6.512611912E-01 -9.194548464E-01  7.336494609E+02  7.393666592E+02  9.176195133E+01  0.00000E+00  9.000E+00
      11     1     3     3     0     0  2.510482331E+01  2.173032442E+00  6.784062316E+02  6.788740600E+02  5.109989100E-04  0.00000E+00  9.000E+00
     -11     1     3     3     0     0 -2.445356212E+01 -3.092487288E+00  5.524322935E+01  6.049259927E+01  5.109989100E-04  0.00000E+00  9.000E+00
      21     1     1     2   511   501 -6.512611912E-01  9.194548464E-01  3.934293125E+01  3.935906220E+01  1.178202365E-07  0.00000E+00  9.000E+00
#rwgt            1           7   752.55276139971750         54217137        7053           0
</event>
<event>
      6  10011  1.22355E+03  5.20551E+01 -1.00000E+00  1.41077E-01
       1    -1     0     0   501     0  0.000000000E+00  0.000000000E+00  3.900828564E+01  3.900828564E+01  2.977353747E-07  0.00000E+00  9.000E+00
      21    -1     0     0   511   501  0.000000000E+00  0.000000000E+00 -2.052814563E+02  2.052814563E+02  1.048972961E-06  0.00000E+00  9.000E+00
      23     2     1     2     0     0 -4.771103627E+01 -2.081803301E+01 -4.930689805E+01  1.162630166E+02  9.152150209E+01  0.00000E+00  9.000E+00
      11     1     3     3     0     0 -7.190638095E+01 -2.301231692E+01 -5.221350220E+01  9.179512059E+01  5.109989100E-04  0.00000E+00  9.000E+00
     -11     1     3     3     0     0  2.419534468E+01  2.194283910E+00  2.906604153E+00  2.446789598E+01  5.109989100E-04  0.00000E+00  9.000E+00
       1     1     1     2   511     0  4.771103627E+01  2.081803301E+01 -1.169662726E+02  1.280267253E+02  0.000000000E+00  0.00000E+00  9.000E+00
#rwgt            1           6   174.81049773906312         54217137        7336           0
</event>
<event>
      6  10011  1.22355E+03  4.93932E+01 -1.00000E+00  1.42430E-01
      21    -1     0     0   511   501  0.000000000E+00  0.000000000E+00  7.352173422E+01  7.352173422E+01  3.375302166E-07  0.00000E+00  9.000E+00
       3    -1     0     0   501     0  0.000000000E+00  0.000000000E+00 -7.979129638E+01  7.979129638E+01  5.002836678E-07  0.00000E+00  9.000E+00
      23     2     1     2     0     0  4.939268671E+01  2.289895696E-01 -4.236999753E+00  1.038780101E+02  9.128526106E+01  0.00000E+00  9.000E+00
      11     1     3     3     0     0  4.774612637E+01  3.827089786E+01  1.221483196E+01  6.239836798E+01  5.109989100E-04  0.00000E+00  9.000E+00
     -11     1     3     3     0     0  1.646560351E+00 -3.804190829E+01 -1.645183171E+01  4.147964217E+01  5.109989100E-04  0.00000E+00  9.000E+00
       3     1     1     2   511     0 -4.939268671E+01 -2.289895696E-01 -2.032562411E+00  4.943502045E+01  0.000000000E+00  0.00000E+00  9.000E+00
#rwgt            1           3   87.688002767118107         54217137        7361           0
</event>
<event>
      6  10011  1.22355E+03  2.16411E+01 -1.00000E+00  1.67853E-01
       1    -1     0     0   501     0  0.000000000E+00  0.000000000E+00  8.405825542E+02  8.405825542E+02  5.832594709E-06  0.00000E+00  9.000E+00
      21    -1     0     0   511   501  0.000000000E+00  0.000000000E+00 -4.115407440E+00  4.115407440E+00  3.308636021E-08  0.00000E+00  9.000E+00
      23     2     1     2     0     0  1.956276462E+01 -9.254048793E+00  6.161601716E+02  6.233306143E+02  9.175706206E+01  0.00000E+00  9.000E+00
      11     1     3     3     0     0  2.062906395E+01  3.468767068E+00  6.075979773E+02  6.079579694E+02  5.109989100E-04  0.00000E+00  9.000E+00
     -11     1     3     3     0     0 -1.066299324E+00 -1.272281586E+01  8.562194386E+00  1.537264488E+01  5.109989100E-04  0.00000E+00  9.000E+00
       1     1     1     2   511     0 -1.956276462E+01  9.254048793E+00  2.203069752E+02  2.213673474E+02  0.000000000E+00  0.00000E+00  9.000E+00
#rwgt            1           6   618.02853360162385         54217137        7454           0
</event>
<event>
      6  10011  1.22355E+03  3.12320E+00 -1.00000E+00  3.06292E-01
      -2    -1     0     0     0   511  0.000000000E+00  0.000000000E+00  3.582427825E+01  3.582427825E+01  2.736010812E-07  0.00000E+00  9.000E+00
       2    -1     0     0   501     0  0.000000000E+00  0.000000000E+00 -5.634361702E+01  5.634361702E+01  3.703056417E-07  0.00000E+00  9.000E+00
      23     2     1     2     0     0 -5.822996568E-02 -3.122657864E+00 -2.301071889E+01  8.817272848E+01  8.505987585E+01  0.00000E+00  9.000E+00
      11     1     3     3     0     0 -1.861854031E+01  4.853614165E+00 -5.051002468E+01  5.405062634E+01  5.109989100E-04  0.00000E+00  9.000E+00
     -11     1     3     3     0     0  1.856031035E+01 -7.976272030E+00  2.749930579E+01  3.412210215E+01  5.109989100E-04  0.00000E+00  9.000E+00
      21     1     1     2   501   511  5.822996568E-02  3.122657864E+00  2.491380118E+00  3.995166800E+00  3.790056570E-08  0.00000E+00  9.000E+00
#rwgt            1           4   158.61542551480150         54217137        7554           0
</event>
<event>
      6  10011  1.22355E+03  1.97719E+01 -1.00000E+00  1.71218E-01
      -2    -1     0     0     0   501  0.000000000E+00  0.000000000E+00  4.674969274E+01  4.674969274E+01  4.392538862E-07  0.00000E+00  9.000E+00
      21    -1     0     0   501   511  0.000000000E+00  0.000000000E+00 -1.695654281E+02  1.695654281E+02  1.087789044E-06  0.00000E+00  9.000E+00
      23     2     1     2     0     0 -8.659740920E-01 -1.975291784E+01 -1.537920785E+02  1.795664950E+02  9.056044959E+01  0.00000E+00  9.000E+00
      11     1     3     3     0     0 -3.667286857E+01 -2.957833023E+01 -1.216557185E+02  1.304603034E+02  5.109989100E-04  0.00000E+00  9.000E+00
     -11     1     3     3     0     0  3.580689448E+01  9.825412382E+00 -3.213636001E+01  4.910619162E+01  5.109989100E-04  0.00000E+00  9.000E+00
      -2     1     1     2     0   511  8.659740920E-01  1.975291784E+01  3.097634310E+01  3.674862591E+01  0.000000000E+00  0.00000E+00  9.000E+00
#rwgt            1           4   364.15150797869592         54217137        7730           0
</event>
<event>
      6  10011  1.22355E+03  6.11711E+00 -1.00000E+00  2.32476E-01
       1    -1     0     0   501     0  0.000000000E+00  0.000000000E+00  1.980614832E+01  1.980614832E+01  1.178684646E-07  0.00000E+00  9.000E+00
      21    -1     0     0   511   501  0.000000000E+00  0.000000000E+00 -2.734953978E+02  2.734953978E+02  2.670046387E-06  0.00000E+00  9.000E+00
      23     2     1     2     0     0 -5.512021229E+00 -2.652662223E+00 -9.172455466E+01  1.312213766E+02  9.363886343E+01  0.00000E+00  9.000E+00
      11     1     3     3     0     0  1.798444290E+01 -1.163991636E+01  1.195559205E+01  2.453291708E+01  5.109989100E-04  0.00000E+00  9.000E+00
     -11     1     3     3     0     0 -2.349646413E+01  8.987254132E+00 -1.036801467E+02  1.066884595E+02  5.109989100E-04  0.00000E+00  9.000E+00
       1     1     1     2   511     0  5.512021229E+00  2.652662223E+00 -1.619646948E+02  1.620801696E+02  0.000000000E+00  0.00000E+00  9.000E+00
#rwgt            1           6   222.45348055251662         54217137        7798           0
</event>
<event>
      6  10011  1.22355E+03  1.03004E+01 -1.00000E+00  2.00403E-01
      21    -1     0     0   511   501  0.000000000E+00  0.000000000E+00  6.403091195E+01  6.403091195E+01  5.184316172E-07  0.00000E+00  9.000E+00
       1    -1     0     0   501     0  0.000000000E+00  0.000000000E+00 -5.833899267E+01  5.833899267E+01  1.662168154E-07  0.00000E+00  9.000E+00
      23     2     1     2     0     0 -1.027010868E+01 -7.888543793E-01 -2.385652688E+01  9.107760375E+01  8.729203060E+01  0.00000E+00  9.000E+00
      11     1     3     3     0     0 -1.604643351E+01  3.439901419E+01 -3.706341115E+01  5.305164137E+01  5.109989100E-04  0.00000E+00  9.000E+00
     -11     1     3     3     0     0  5.776324832E+00 -3.518786857E+01  1.320688427E+01  3.802596239E+01  5.109989100E-04  0.00000E+00  9.000E+00
       1     1     1     2   511     0  1.027010868E+01  7.888543793E-01  2.954844615E+01  3.129230087E+01  0.000000000E+00  0.00000E+00  9.000E+00
#rwgt            1           5   234.86500878990790         54217137        7880           0
</event>
<event>
      6  10011  1.22355E+03  1.34755E+01 -1.00000E+00  1.87208E-01
      -3    -1     0     0     0   501  0.000000000E+00  0.000000000E+00  1.036676836E+01  1.036676836E+01  6.675564165E-08  0.00000E+00  9.000E+00
       3    -1     0     0   511     0  0.000000000E+00  0.000000000E+00 -2.817507809E+02  2.817507809E+02  2.588679362E-06  0.00000E+00  9.000E+00
      23     2     1     2     0     0  8.020362519E+00  1.082877369E+01 -2.074639701E+02  2.267925129E+02  9.061984575E+01  0.00000E+00  9.000E+00
      11     1     3     3     0     0  4.757609647E-01 -2.769633809E+01 -1.709486628E+02  1.731784017E+02  5.109989100E-04  0.00000E+00  9.000E+00
     -11     1     3     3     0     0  7.544601555E+00  3.852511178E+01 -3.651530729E+01  5.361411118E+01  5.109989100E-04  0.00000E+00  9.000E+00
      21     1     1     2   511   501 -8.020362519E+00 -1.082877369E+01 -6.392004237E+01  6.532503632E+01  1.337345179E-06  0.00000E+00  9.000E+00
#rwgt            1           3   95.870537292668686         54217137        7960           0
</event>
<event>
      6  10011  1.22355E+03  3.69424E+00 -1.00000E+00  2.84419E-01
      21    -1     0     0   511   501  0.000000000E+00  0.000000000E+00  4.721547501E+02  4.721547501E+02  3.447830274E-06  0.00000E+00  9.000E+00
       4    -1     0     0   501     0  0.000000000E+00  0.000000000E+00 -2.999207597E+01  2.999207597E+01  6.657993130E-08  0.00000E+00  9.000E+00
      23     2     1     2     0     0 -2.747717586E+00 -2.469301847E+00  3.907774443E+01  9.904496803E+01  9.093507672E+01  0.00000E+00  9.000E+00
      11     1     3     3     0     0 -2.212866312E+01 -2.998168514E+01 -1.087086061E+01  3.881693942E+01  5.109989100E-04  0.00000E+00  9.000E+00
     -11     1     3     3     0     0  1.938094554E+01  2.751238330E+01  4.994860504E+01  6.022802861E+01  5.109989100E-04  0.00000E+00  9.000E+00
       4     1     1     2   511     0  2.747717586E+00  2.469301847E+00  4.030849297E+02  4.031018580E+02  0.000000000E+00  0.00000E+00  9.000E+00
#rwgt            1           2   47.205190866482283         54217137        7997           0
</event>
<event>
      6  10011  1.22355E+03  3.21317E+01 -1.00000E+00  1.54602E-01
       2    -1     0     0   511     0  0.000000000E+00  0.000000000E+00  6.554216779E+02  6.554216779E+02  5.095614646E-06  0.00000E+00  9.000E+00
      -2    -1     0     0     0   501  0.000000000E+00  0.000000000E+00 -5.913286254E+00  5.913286254E+00  5.351961499E-08  0.00000E+00  9.000E+00
      23     2     1     2     0     0  4.253110655E+00  3.184894335E+01  4.761637249E+02  4.850374383E+02  8.658509959E+01  0.00000E+00  9.000E+00
      11     1     3     3     0     0  2.044172962E+01 -1.582157565E+01  3.181297080E+02  3.191781598E+02  5.109989100E-04  0.00000E+00  9.000E+00
     -11     1     3     3     0     0 -1.618861896E+01  4.767051900E+01  1.580340169E+02  1.658592785E+02  5.109989100E-04  0.00000E+00  9.000E+00
      21     1     1     2   511   501 -4.253110655E+00 -3.184894335E+01  1.733446667E+02  1.762975258E+02  9.704411081E-07  0.00000E+00  9.000E+00
#rwgt            1           7   441.93411842106957         54217137        8117           0
</event>
<event>
      6  10011  1.22355E+03  3.81203E+01 -1.00000E+00  1.49516E-01
      21    -1     0     0   501   511  0.000000000E+00  0.000000000E+00  1.780191187E+01  1.780191187E+01  9.804446539E-08  0.00000E+00  9.000E+00
      -4    -1     0     0     0   501  0.000000000E+00  0.000000000E+00 -4.993583920E+02  4.993583920E+02  2.059236731E-06  0.00000E+00  9.000E+00
      23     2     1     2     0     0 -3.810711632E+01  1.002624472E+00 -4.661066904E+02  4.760281562E+02  8.884931647E+01  0.00000E+00  9.000E+00
      11     1     3     3     0     0 -3.079094970E+01 -2.526425927E+01 -4.239829192E+02  4.258495993E+02  5.109989100E-04  0.00000E+00  9.000E+00
     -11     1     3     3     0     0 -7.316166623E+00  2.626688374E+01 -4.212377122E+01  5.017855695E+01  5.109989100E-04  0.00000E+00  9.000E+00
      -4     1     1     2     0   511  3.810711632E+01 -1.002624472E+00 -1.544978966E+01  4.113214765E+01  0.000000000E+00  0.00000E+00  9.000E+00
#rwgt            1           9   19.596093861321314         54217137        8146           0
</event>
<event>
      6  10011  1.22355E+03  9.48152E+00 -1.00000E+00  2.04871E-01
      -2    -1     0     0     0   511  0.000000000E+00  0.000000000E+00  2.545815944E+02  2.545815944E+02  1.471287368E-06  0.00000E+00  9.000E+00
       2    -1     0     0   501     0  0.000000000E+00  0.000000000E+00 -1.005636559E+01  1.005636559E+01  5.288803221E-08  0.00000E+00  9.000E+00
      23     2     1     2     0     0 -3.253675317E-01  9.475932902E+00  2.123729189E+02  2.311167697E+02  9.067968556E+01  0.00000E+00  9.000E+00
      11     1     3     3     0     0  4.353161305E+01  5.365957749E+00  7.533304361E+01  8.717145345E+01  5.109989100E-04  0.00000E+00  9.000E+00
     -11     1     3     3     0     0 -4.385698058E+01  4.109975153E+00  1.370398753E+02  1.439453162E+02  5.109989100E-04  0.00000E+00  9.000E+00
      21     1     1     2   501   511  3.253675317E-01 -9.475932902E+00  3.215230990E+01  3.352119032E+01  3.006885713E-07  0.00000E+00  9.000E+00
#rwgt            1           4   118.47008496439678         54217137        8226           0
</event>
<event>
      6  10011  1.22355E+03  6.30996E+01 -1.00000E+00  1.36337E-01
      21    -1     0     0   511   501  0.000000000E+00  0.000000000E+00  9.723794940E+00  9.723794940E+00  3.018631095E-08  0.00000E+00  9.000E+00
       1    -1     0     0   501     0  0.000000000E+00  0.000000000E+00 -9.284666178E+02  9.284666178E+02  4.263930334E-06  0.00000E+00  9.000E+00
      23     2     1     2     0     0  1.731886637E+01 -6.067633744E+01 -3.938013614E+02  4.094701663E+02  9.276175815E+01  0.00000E+00  9.000E+00
      11     1     3     3     0     0  2.584657212E+01  1.745770932E+01 -7.729503432E+01  8.335070027E+01  5.109989100E-04  0.00000E+00  9.000E+00
     -11     1     3     3     0     0 -8.527705753E+00 -7.813404676E+01 -3.165063271E+02  3.261194660E+02  5.109989100E-04  0.00000E+00  9.000E+00
       1     1     1     2   511     0 -1.731886637E+01  6.067633744E+01 -5.249414614E+02  5.287202464E+02  0.000000000E+00  0.00000E+00  9.000E+00
#rwgt            1           5   336.08409879301763         54217137        8321           0
</event>
<event>
      6  10011  1.22355E+03  1.30293E+01 -1.00000E+00  1.88761E-01
       2    -1     0     0   511     0  0.000000000E+00  0.000000000E+00  1.376425272E+01  1.376425272E+01  1.110426801E-07  0.00000E+00  9.000E+00
      -2    -1     0     0     0   501  0.000000000E+00  0.000000000E+00 -1.840874107E+02  1.840874107E+02  9.657912903E-07  0.00000E+00  9.000E+00
      23     2     1     2     0     0 -6.895830978E+00  1.105492742E+01 -1.584105101E+02  1.801973415E+02  8.489657383E+01  0.00000E+00  9.000E+00
      11     1     3     3     0     0 -2.092940830E+01  2.077385587E+01 -1.049606239E+01  3.130112690E+01  5.109989100E-04  0.00000E+00  9.000E+00
     -11     1     3     3     0     0  1.403357732E+01 -9.718928445E+00 -1.479144477E+02  1.488962146E+02  5.109989100E-04  0.00000E+00  9.000E+00
      21     1     1     2   511   501  6.895830978E+00 -1.105492742E+01 -1.191264791E+01  1.765432200E+01  2.307848373E-07  0.00000E+00  9.000E+00
#rwgt            1           7   91.391327292742531         54217137        8358           0
</event>
<event>
      6  10011  1.22355E+03  5.75653E+01 -1.00000E+00  1.38557E-01
      -1    -1     0     0     0   501  0.000000000E+00  0.000000000E+00  1.671104996E+02  1.671104996E+02  1.157781839E-06  0.00000E+00  9.000E+00
      21    -1     0     0   501   511  0.000000000E+00  0.000000000E+00 -7.876234517E+01  7.876234517E+01  4.381195648E-07  0.00000E+00  9.000E+00
      23     2     1     2     0     0 -4.739877907E+01  3.266674501E+01  1.358319809E+02  1.712506345E+02  8.696374116E+01  0.00000E+00  9.000E+00
      11     1     3     3     0     0 -6.738270003E+01  4.105772759E+01  1.227833856E+02  1.459517901E+02  5.109989100E-04  0.00000E+00  9.000E+00
     -11     1     3     3     0     0  1.998392096E+01 -8.390982575E+00  1.304859533E+01  2.529884436E+01  5.109989100E-04  0.00000E+00  9.000E+00
      -1     1     1     2     0   511  4.739877907E+01 -3.266674501E+01 -4.748382652E+01  7.462221028E+01  0.000000000E+00  0.00000E+00  9.000E+00
#rwgt            1           5   174.06622764859333         54217137        8407           0
</event>
</LesHouchesEvents>
 #Random number generator exit values:     54217137          8441             0
