<LesHouchesEvents version="1.0">
<!--
  File written by Pythia8::LHAup on 15 Jun 2025 at 11:04:38
-->
<init>
  2212  2212  4.000000e+03  4.000000e+03  0  0  0  0  3  1
  4.876776e+01  2.195044e+00  1.000000e+00   9999
</init>
<event>
     8  9999  1.000000e+00  8.833059e+01  7.814690e-03  1.306598e-01
        4    -1     0     0   101     0  0.0000000000e+00  0.0000000000e+00  5.0881346311e+01  5.0881346311e+01  0.0000000000e+00 0. 9.
       -3    -1     0     0     0   101  0.0000000000e+00  0.0000000000e+00 -3.5517331887e+02  3.5517331887e+02  0.0000000000e+00 0. 9.
       23     2     1     2     0     0  1.6590827011e+01  1.5363705107e+01 -1.5652921126e+00  9.1559400845e+01  8.8709496493e+01  1.737204e-14 9.
       24     2     1     2     0     0 -1.6590827011e+01 -1.5363705107e+01 -3.0272668044e+02  3.1449526433e+02  8.2173774775e+01  1.125713e-13 9.
        3     1     3     0   102     0 -1.8091830127e+01  4.1156385289e+01 -1.3085356183e+01  4.6825622407e+01  5.0000000000e-01 0. 9.
       -3     1     3     0     0   102  3.4682657139e+01 -2.5792680181e+01  1.1520064070e+01  4.4733778438e+01  5.0000000000e-01 0. 9.
       -3     1     4     0     0   103  5.5977908307e+00 -3.7296111370e+01 -6.8519796349e+01  7.8214753578e+01  5.0000000000e-01 0. 9.
        4     1     4     0   103     0 -2.2188617842e+01  2.1932406262e+01 -2.3420688409e+02  2.3628051076e+02  1.5000000000e+00 0. 9.
#pdf    4   -3  1.272034e-02  8.879333e-02  8.522810e+01  2.432535e-01  5.120440e-02
</event>
<event>
     8  9999  1.000000e+00  1.190947e+02  7.841242e-03  1.247179e-01
        2    -1     0     0   101     0  0.0000000000e+00  0.0000000000e+00  1.6244805466e+03  1.6244805466e+03  0.0000000000e+00 0. 9.
       -2    -1     0     0     0   101  0.0000000000e+00  0.0000000000e+00 -8.8902345691e+00  8.8902345691e+00  0.0000000000e+00 0. 9.
      -24     2     1     2     0     0  1.4026898368e+00 -8.8438554681e+01  6.9204757579e+02  7.0205092352e+02  7.8245169625e+01  2.033007e-14 9.
       24     2     1     2     0     0 -1.4026898368e+00  8.8438554681e+01  9.2354273626e+02  9.3131985767e+02  8.1253591246e+01  9.047609e-14 9.
        1     1     3     0   102     0 -1.5886745824e+01 -1.8642763646e+01  4.1831064545e+02  4.1902726203e+02  3.3000000000e-01 0. 9.
       -2     1     3     0     0   102  1.7289435661e+01 -6.9795791035e+01  2.7373693034e+02  2.8302366149e+02  3.3000000000e-01 0. 9.
       -3     1     4     0     0   103 -1.5588459630e-01  7.0335211954e+01  8.9296927510e+02  8.9573514088e+02  5.0000000000e-01 0. 9.
        4     1     4     0   103     0 -1.2468052405e+00  1.8103342727e+01  3.0573461164e+01  3.5584716786e+01  1.5000000000e+00 0. 9.
#pdf    2   -2  4.061201e-01  2.222559e-03  1.180917e+02  1.908760e-01  1.068938e+00
</event>
<event>
     8  9999  1.000000e+00  8.562722e+01  7.811938e-03  1.313106e-01
       -1    -1     0     0     0   101  0.0000000000e+00  0.0000000000e+00  2.7225506356e+01  2.7225506356e+01  0.0000000000e+00 0. 9.
        1    -1     0     0   101     0  0.0000000000e+00  0.0000000000e+00 -8.0936622390e+02  8.0936622390e+02  0.0000000000e+00 0. 9.
      -24     2     1     2     0     0  1.9101827837e+01  2.8172471705e+01 -7.3536150558e+02  7.4053667539e+02  8.0495066443e+01  3.034360e-14 9.
       24     2     1     2     0     0 -1.9101827837e+01 -2.8172471705e+01 -4.6779211960e+01  9.6055054861e+01  7.6679272976e+01  2.791646e-14 9.
       13     1     3     0     0     0 -4.0125392873e-01  5.1894422257e+01 -5.6921683656e+02  5.7157765024e+02  1.0566000000e-01  3.167676e+05 9.
      -14     1     3     0     0     0  1.9503081765e+01 -2.3721950552e+01 -1.6614466902e+02  1.6895902516e+02  0.0000000000e+00 0. 9.
       -3     1     4     0     0   102 -1.9416215218e+01 -5.2237237359e+01 -1.8124396876e+01  5.8604284335e+01  5.0000000000e-01 0. 9.
        4     1     4     0   102     0  3.1438738145e-01  2.4064765655e+01 -2.8654815084e+01  3.7450770525e+01  1.5000000000e+00 0. 9.
#pdf   -1    1  6.806377e-03  2.023416e-01  8.389445e+01  6.255712e-01  2.337068e-01
</event>
<event>
     8  9999  1.000000e+00  8.770948e+01  7.814065e-03  1.308070e-01
       -2    -1     0     0     0   101  0.0000000000e+00  0.0000000000e+00  6.6073835619e+02  6.6073835619e+02  0.0000000000e+00 0. 9.
        1    -1     0     0   101     0  0.0000000000e+00  0.0000000000e+00 -5.8956421680e+01  5.8956421680e+01  0.0000000000e+00 0. 9.
       23     2     1     2     0     0  2.0314455188e+01 -2.1998310248e+01  6.2443726031e+02  6.3082118520e+02  8.4361560510e+01  2.062918e-13 9.
      -24     2     1     2     0     0 -2.0314455188e+01  2.1998310248e+01 -2.2655325797e+01  8.8873592672e+01  8.0552150462e+01  1.445363e-14 9.
        2     1     3     0   102     0  1.8737136485e+01  8.8158528830e+00  3.5672865909e+01  4.1248779471e+01  3.3000000000e-01 0. 9.
       -2     1     3     0     0   102  1.5773187037e+00 -3.0814163131e+01  5.8876439440e+02  5.8957240573e+02  3.3000000000e-01 0. 9.
        1     1     4     0   103     0 -3.4286755552e+00 -1.3377078383e+00 -4.9416692817e+01  4.9554653740e+01  3.3000000000e-01 0. 9.
       -2     1     4     0     0   103 -1.6885779633e+01  2.3336018087e+01  2.6761367020e+01  3.9318938932e+01  3.3000000000e-01 0. 9.
#pdf   -2    1  1.651846e-01  1.473911e-02  8.593749e+01  3.515183e-02  5.811681e-01
</event>
<event>
     8  9999  1.000000e+00  1.438340e+02  7.858105e-03  1.212357e-01
       -2    -1     0     0     0   101  0.0000000000e+00  0.0000000000e+00  6.4019036714e+01  6.4019036714e+01  0.0000000000e+00 0. 9.
        2    -1     0     0   101     0  0.0000000000e+00  0.0000000000e+00 -9.0472776095e+02  9.0472776095e+02  0.0000000000e+00 0. 9.
      -24     2     1     2     0     0  9.4104189452e+01  7.6572838115e+01 -3.3964408499e+01  1.4960114213e+02  8.0671696846e+01  2.144242e-14 9.
       24     2     1     2     0     0 -9.4104189452e+01 -7.6572838115e+01 -8.0674431573e+02  8.1914565553e+02  7.3784930703e+01  9.000317e-14 9.
        3     1     3     0   102     0  6.6817671594e+01  7.1357379507e+00 -3.3252382267e+01  7.4976602483e+01  5.0000000000e-01 0. 9.
       -4     1     3     0     0   102  2.7286517858e+01  6.9437100164e+01 -7.1202623171e-01  7.4624539646e+01  1.5000000000e+00 0. 9.
       -1     1     4     0     0   103 -8.7784096105e+00 -4.5941536902e+01 -3.8069577190e+02  3.8355842440e+02  3.3000000000e-01 0. 9.
        2     1     4     0   103     0 -8.5325779841e+01 -3.0631301213e+01 -4.2604854383e+02  4.3558723113e+02  3.3000000000e-01 0. 9.
#pdf   -2    2  1.600476e-02  2.261819e-01  1.419972e+02  3.845732e-01  4.212506e-01
</event>
<event>
     8  9999  1.000000e+00  9.098441e+01  7.817312e-03  1.300461e-01
       -2    -1     0     0     0   101  0.0000000000e+00  0.0000000000e+00  3.6926702720e+02  3.6926702720e+02  0.0000000000e+00 0. 9.
        2    -1     0     0   101     0  0.0000000000e+00  0.0000000000e+00 -2.4805789988e+01  2.4805789988e+01  0.0000000000e+00 0. 9.
      -24     2     1     2     0     0 -3.4270523640e+01  1.9449955679e+01  2.2058911365e+02  2.3629619955e+02  7.4990448025e+01  3.229669e-14 9.
       24     2     1     2     0     0  3.4270523640e+01 -1.9449955679e+01  1.2387212355e+02  1.5777661763e+02  8.9422527981e+01  1.285856e-14 9.
       13     1     3     0     0     0 -3.9238726979e+01 -2.0268237044e+01  1.0257715199e+02  1.1168062680e+02  1.0566000000e-01  5.237409e+05 9.
      -14     1     3     0     0     0  4.9682033389e+00  3.9718192723e+01  1.1801196166e+02  1.2461557275e+02  0.0000000000e+00 0. 9.
      -11     1     4     0     0     0  5.6833362727e+01  1.2353722277e+01  6.5707385072e+01  8.7750248012e+01  5.1100000000e-04 0. 9.
       12     1     4     0     0     0 -2.2562839087e+01 -3.1803677956e+01  5.8164738483e+01  7.0026369619e+01  0.0000000000e+00 0. 9.
#pdf   -2    2  9.231676e-02  6.201447e-03  8.471326e+01  7.969558e-02  8.285778e-01
</event>
<event>
     8  9999  1.000000e+00  1.255999e+02  7.845986e-03  1.237167e-01
       -1    -1     0     0     0   101  0.0000000000e+00  0.0000000000e+00  4.1363595842e+01  4.1363595842e+01  0.0000000000e+00 0. 9.
        2    -1     0     0   101     0  0.0000000000e+00  0.0000000000e+00 -7.7353861834e+02  7.7353861834e+02  0.0000000000e+00 0. 9.
       23     2     1     2     0     0 -5.7274309168e+01  7.2999491940e+01 -8.1240435149e+01  1.5261398468e+02  8.9898541165e+01  2.572806e-13 9.
       24     2     1     2     0     0  5.7274309168e+01 -7.2999491940e+01 -6.5093458735e+02  6.6228822950e+02  7.9376253447e+01  2.947899e-13 9.
        4     1     3     0   102     0 -2.5862004942e+01 -7.7612218735e+00 -5.6253604342e+01  6.2416326919e+01  1.5000000000e+00 0. 9.
       -4     1     3     0     0   102 -3.1412304226e+01  8.0760713814e+01 -2.4986830808e+01  9.0197657765e+01  1.5000000000e+00 0. 9.
      -15     1     4     0     0     0 -1.5547450861e+01 -4.3567544972e+00 -1.8586368885e+02  1.8657216422e+02  1.7768200000e+00  2.404287e-01 9.
       16     1     4     0     0     0  7.2821760029e+01 -6.8642737443e+01 -4.6507089850e+02  4.7571606528e+02  0.0000000000e+00 0. 9.
#pdf   -1    2  1.034090e-02  1.933847e-01  1.221059e+02  5.213417e-01  4.726593e-01
</event>
<event>
     8  9999  1.000000e+00  2.368873e+02  7.903032e-03  1.133454e-01
        4    -1     0     0   101     0  0.0000000000e+00  0.0000000000e+00  5.7633944189e+01  5.7633944189e+01  0.0000000000e+00 0. 9.
       -3    -1     0     0     0   101  0.0000000000e+00  0.0000000000e+00 -1.3725800772e+03  1.3725800772e+03  0.0000000000e+00 0. 9.
       23     2     1     2     0     0  2.1928305312e+02  2.3409763295e+01 -2.7622010284e+02  3.6529081470e+02  9.2232096832e+01  5.249027e-14 9.
       24     2     1     2     0     0 -2.1928305312e+02 -2.3409763295e+01 -1.0387260302e+03  1.0649232067e+03  8.0477301104e+01  1.092759e-13 9.
        4     1     3     0   102     0  2.1919650258e+02  3.2267468670e+01 -2.7863395506e+02  3.5598795933e+02  1.5000000000e+00 0. 9.
       -4     1     3     0     0   102  8.6550540444e-02 -8.8577053749e+00  2.4138522141e+00  9.3028553690e+00  1.5000000000e+00 0. 9.
       -1     1     4     0     0   103 -2.1044126688e+02 -3.3303883922e+01 -8.7129910472e+02  8.9697096623e+02  3.3000000000e-01 0. 9.
        2     1     4     0   103     0 -8.8417862434e+00  9.8941206271e+00 -1.6742692550e+02  1.6795224050e+02  3.3000000000e-01 0. 9.
#pdf    4   -3  1.440849e-02  3.431450e-01  2.347545e+02  2.499377e-01  4.385210e-03
</event>
<event>
     8  9999  1.000000e+00  9.451433e+01  7.820686e-03  1.292654e-01
       -2    -1     0     0     0   101  0.0000000000e+00  0.0000000000e+00  9.6558338357e+00  9.6558338357e+00  0.0000000000e+00 0. 9.
        2    -1     0     0   101     0  0.0000000000e+00  0.0000000000e+00 -1.1154638898e+03  1.1154638898e+03  0.0000000000e+00 0. 9.
      -24     2     1     2     0     0 -9.2867732031e+00 -2.9344193604e+01 -3.7683010253e+02  3.9119891529e+02  1.0044072530e+02  7.661386e-14 9.
       24     2     1     2     0     0  9.2867732031e+00  2.9344193604e+01 -7.2897795348e+02  7.3392080839e+02  7.9268975474e+01  2.653480e-13 9.
        1     1     3     0   102     0  2.5143168314e+01 -3.5192235137e+01 -3.2977483118e+02  3.3259918897e+02  3.3000000000e-01 0. 9.
       -2     1     3     0     0   102 -3.4429941518e+01  5.8480415335e+00 -4.7055271354e+01  5.8599726321e+01  3.3000000000e-01 0. 9.
       -3     1     4     0     0   103  3.6216523715e+01  3.7357656426e+01 -5.7846456689e+02  5.8080008284e+02  5.0000000000e-01 0. 9.
        4     1     4     0   103     0 -2.6929750512e+01 -8.0134628226e+00 -1.5051338659e+02  1.5312072555e+02  1.5000000000e+00 0. 9.
#pdf   -2    2  2.413958e-03  2.788660e-01  8.503468e+01  9.887548e-01  3.634840e-01
</event>
<event>
     8  9999  1.000000e+00  8.147623e+01  7.807544e-03  1.323644e-01
       -1    -1     0     0     0   101  0.0000000000e+00  0.0000000000e+00  3.2274570014e+02  3.2274570014e+02  0.0000000000e+00 0. 9.
        1    -1     0     0   101     0  0.0000000000e+00  0.0000000000e+00 -1.2898650540e+02  1.2898650540e+02  0.0000000000e+00 0. 9.
      -24     2     1     2     0     0  3.3248201503e+00 -1.3324854829e+01 -1.1011803768e+02  1.3722699816e+02  8.0725836114e+01  2.703589e-13 9.
       24     2     1     2     0     0 -3.3248201503e+00  1.3324854829e+01  3.0387723243e+02  3.1450520738e+02  7.9897101924e+01  2.762571e-14 9.
        3     1     3     0   102     0 -1.1162567176e+01 -2.1067265590e+01 -1.1696228379e+02  1.1936858220e+02  5.0000000000e-01 0. 9.
       -4     1     3     0     0   102  1.4487387326e+01  7.7424107615e+00  6.8442461125e+00  1.7858415965e+01  1.5000000000e+00 0. 9.
      -11     1     4     0     0     0 -3.1533464549e+01  1.9739508268e+01  2.5507053056e+02  2.5776924396e+02  5.1100000000e-04 0. 9.
       12     1     4     0     0     0  2.8208644399e+01 -6.4146534398e+00  4.8806701869e+01  5.6735963417e+01  0.0000000000e+00 0. 9.
#pdf   -1    1  8.068643e-02  3.224663e-02  8.106882e+01  1.240367e-01  4.782044e-01
</event>
<event>
     8  9999  1.000000e+00  9.351722e+01  7.819746e-03  1.294820e-01
       -1    -1     0     0     0   101  0.0000000000e+00  0.0000000000e+00  3.6646863207e+01  3.6646863207e+01  0.0000000000e+00 0. 9.
        1    -1     0     0   101     0  0.0000000000e+00  0.0000000000e+00 -2.9027954789e+02  2.9027954789e+02  0.0000000000e+00 0. 9.
       23     2     1     2     0     0  1.3811259009e+01  2.3828149284e+01 -1.9359179580e+02  2.1419428434e+02  8.7423546435e+01  1.472815e-13 9.
       23     2     1     2     0     0 -1.3811259009e+01 -2.3828149284e+01 -6.0040888887e+01  1.1273212676e+02  9.1351477770e+01  3.009336e-14 9.
        5     1     3     0   102     0  1.4756057819e+00 -2.7938189648e+01 -1.1962721310e+02  1.2294889169e+02  4.8000000000e+00 0. 9.
       -5     1     3     0     0   102  1.2335653227e+01  5.1766338933e+01 -7.3964582695e+01  9.1245392653e+01  4.8000000000e+00 0. 9.
       16     1     4     0     0     0  3.7276338492e+01 -1.4874031673e+01 -1.1635130782e+01  4.1786822060e+01  0.0000000000e+00 0. 9.
      -16     1     4     0     0     0 -5.1087597501e+01 -8.9541176113e+00 -4.8405758105e+01  7.0945304696e+01  0.0000000000e+00 0. 9.
#pdf   -1    1  9.161716e-03  7.256989e-02  9.165920e+01  5.445277e-01  3.970607e-01
</event>
<event>
     8  9999  1.000000e+00  8.428517e+01  7.810541e-03  1.316438e-01
       -3    -1     0     0     0   101  0.0000000000e+00  0.0000000000e+00  2.7816423260e+02  2.7816423260e+02  0.0000000000e+00 0. 9.
        3    -1     0     0   101     0  0.0000000000e+00  0.0000000000e+00 -4.0673234516e+01  4.0673234516e+01  0.0000000000e+00 0. 9.
      -24     2     1     2     0     0  3.1635789165e+01  3.2605691155e+00  1.9376096458e+01  8.4072439719e+01  7.5374316178e+01  6.643709e-14 9.
       24     2     1     2     0     0 -3.1635789165e+01 -3.2605691155e+00  2.1811490162e+02  2.3476502740e+02  8.0802557573e+01  2.497306e-14 9.
        1     1     3     0   102     0  1.1825089265e+01  1.1922285783e+01 -2.7628223827e+01  3.2332665931e+01  3.3000000000e-01 0. 9.
       -2     1     3     0     0   102  1.9810699900e+01 -8.6617166672e+00  4.7004320285e+01  5.1739773787e+01  3.3000000000e-01 0. 9.
       -3     1     4     0     0   103 -4.9812691095e+00 -3.5572946653e+01  5.0402110215e+01  6.1894024668e+01  5.0000000000e-01 0. 9.
        4     1     4     0   103     0 -2.6654520056e+01  3.2312377538e+01  1.6771279141e+02  1.7287100273e+02  1.5000000000e+00 0. 9.
#pdf   -3    3  6.954106e-02  1.016831e-02  8.180918e+01  6.755748e-02  3.270189e-01
</event>
<event>
     8  9999  1.000000e+00  1.220641e+02  7.843438e-03  1.242523e-01
       -2    -1     0     0     0   101  0.0000000000e+00  0.0000000000e+00  2.7990658623e+01  2.7990658623e+01  0.0000000000e+00 0. 9.
        2    -1     0     0   101     0  0.0000000000e+00  0.0000000000e+00 -5.3488622515e+02  5.3488622515e+02  0.0000000000e+00 0. 9.
      -24     2     1     2     0     0  7.3524025589e+01  5.4206846295e+01 -2.7347502157e+02  2.9957797134e+02  8.1327787174e+01  2.844570e-14 9.
       24     2     1     2     0     0 -7.3524025589e+01 -5.4206846295e+01 -2.3342054496e+02  2.6329891244e+02  8.0603982256e+01  2.159523e-13 9.
        3     1     3     0   102     0  1.1361729872e+01 -1.9593208904e+01 -8.3208686358e+01  8.6237568532e+01  5.0000000000e-01 0. 9.
       -4     1     3     0     0   102  6.2162295716e+01  7.3800055199e+01 -1.9026633521e+02  2.1334040281e+02  1.5000000000e+00 0. 9.
       -1     1     4     0     0   103 -2.5138389321e+01 -7.2795259738e+00 -7.0501168714e+00  2.7106146240e+01  3.3000000000e-01 0. 9.
        2     1     4     0   103     0 -4.8385636267e+01 -4.6927320321e+01 -2.2637042809e+02  2.3619276620e+02  3.3000000000e-01 0. 9.
#pdf   -2    2  6.997665e-03  1.337216e-01  1.218243e+02  6.161205e-01  5.497664e-01
</event>
<event>
     8  9999  1.000000e+00  1.167375e+02  7.839460e-03  1.250985e-01
        1    -1     0     0   101     0  0.0000000000e+00  0.0000000000e+00  2.3955084409e+02  2.3955084409e+02  0.0000000000e+00 0. 9.
       -1    -1     0     0     0   101  0.0000000000e+00  0.0000000000e+00 -1.1648944851e+02  1.1648944851e+02  0.0000000000e+00 0. 9.
      -24     2     1     2     0     0  6.0002782632e+01  6.0962406070e+01  1.8886845531e+02  2.2203608632e+02  7.9447978845e+01  1.383950e-13 9.
       24     2     1     2     0     0 -6.0002782632e+01 -6.0962406070e+01 -6.5807059730e+01  1.3400420628e+02  7.9434308154e+01  7.990442e-14 9.
        1     1     3     0   102     0  7.3115254790e+01  4.5269951111e+01  1.8049806456e+02  1.9993716305e+02  3.3000000000e-01 0. 9.
       -2     1     3     0     0   102 -1.3112472158e+01  1.5692454960e+01  8.3703907436e+00  2.2098923276e+01  3.3000000000e-01 0. 9.
      -11     1     4     0     0     0 -6.8944888531e+01 -1.6077463673e+01 -4.3490693345e+01  8.3086237733e+01  5.1100000000e-04 0. 9.
       12     1     4     0     0     0  8.9421058989e+00 -4.4884942398e+01 -2.2316366385e+01  5.0917968543e+01  0.0000000000e+00 0. 9.
#pdf    1   -1  5.988771e-02  2.912236e-02  1.167328e+02  4.157559e-01  2.839238e-01
</event>
<event>
     8  9999  1.000000e+00  8.271630e+01  7.808879e-03  1.320423e-01
        2    -1     0     0   101     0  0.0000000000e+00  0.0000000000e+00  1.9772489781e+02  1.9772489781e+02  0.0000000000e+00 0. 9.
       -2    -1     0     0     0   101  0.0000000000e+00  0.0000000000e+00 -3.5443760342e+01  3.5443760342e+01  0.0000000000e+00 0. 9.
      -24     2     1     2     0     0 -6.0849159113e+00  1.9923557752e+01  6.3335349037e+01  1.0429842841e+02  8.0204871270e+01  3.360454e-14 9.
       24     2     1     2     0     0  6.0849159113e+00 -1.9923557752e+01  9.8945788434e+01  1.2887022975e+02  7.9895511209e+01  1.676074e-14 9.
        3     1     3     0   102     0  1.8914732132e+01  4.3500756379e+01  4.4691708550e+01  6.5174241157e+01  5.0000000000e-01 0. 9.
       -4     1     3     0     0   102 -2.4999648043e+01 -2.3577198627e+01  1.8643640486e+01  3.9124187250e+01  1.5000000000e+00 0. 9.
       -1     1     4     0     0   103 -1.7945070524e+01  2.3363395367e+00 -5.8916188752e+00  1.9034287786e+01  3.3000000000e-01 0. 9.
        2     1     4     0   103     0  2.4029986435e+01 -2.2259897289e+01  1.0483740731e+02  1.0983594196e+02  3.3000000000e-01 0. 9.
#pdf    2   -2  4.943122e-02  8.860940e-03  8.256674e+01  6.214320e-01  5.277191e-01
</event>
<event>
     8  9999  1.000000e+00  9.872786e+01  7.824556e-03  1.283822e-01
        1    -1     0     0   101     0  0.0000000000e+00  0.0000000000e+00  5.1050472502e+02  5.1050472502e+02  0.0000000000e+00 0. 9.
       -2    -1     0     0     0   101  0.0000000000e+00  0.0000000000e+00 -2.2243521985e+01  2.2243521985e+01  0.0000000000e+00 0. 9.
       23     2     1     2     0     0  1.0389394188e+01 -5.4658622142e+01  3.4403803082e+02  3.5787993176e+02  8.1365683296e+01  1.201602e-14 9.
      -24     2     1     2     0     0 -1.0389394188e+01  5.4658622142e+01  1.4422317221e+02  1.7486831524e+02  8.1750228056e+01  2.496328e-14 9.
        3     1     3     0   102     0 -4.2897157405e-01 -7.4660522630e+01  2.3828947221e+02  2.4971283551e+02  5.0000000000e-01 0. 9.
       -3     1     3     0     0   102  1.0818365762e+01  2.0001900488e+01  1.0574855862e+02  1.0816709625e+02  5.0000000000e-01 0. 9.
       11     1     4     0     0     0  3.3305730083e+01  1.1997416036e+01  7.2412858899e+01  8.0602926634e+01  5.1100000000e-04 0. 9.
      -12     1     4     0     0     0 -4.3695124271e+01  4.2661206107e+01  7.1810313312e+01  9.4265388609e+01  0.0000000000e+00 0. 9.
#pdf    1   -2  1.276262e-01  5.560880e-03  9.856916e+01  3.214763e-01  6.808202e-01
</event>
<event>
     8  9999  1.000000e+00  8.562667e+01  7.811938e-03  1.313107e-01
        2    -1     0     0   101     0  0.0000000000e+00  0.0000000000e+00  2.5244145236e+01  2.5244145236e+01  0.0000000000e+00 0. 9.
       -2    -1     0     0     0   101  0.0000000000e+00  0.0000000000e+00 -3.4728803014e+02  3.4728803014e+02  0.0000000000e+00 0. 9.
      -24     2     1     2     0     0  6.2326992618e+00 -2.8921448769e+01 -2.3758118729e+02  2.5280519573e+02  8.1180968786e+01  8.670806e-14 9.
       24     2     1     2     0     0 -6.2326992618e+00  2.8921448769e+01 -8.4462697611e+01  1.1972697965e+02  7.9531790052e+01  1.292506e-13 9.
        3     1     3     0   102     0 -8.9864619757e+00 -4.1728193613e+01 -5.7421513324e+01  7.1550533426e+01  5.0000000000e-01 0. 9.
       -2     1     3     0     0   102  1.5219161238e+01  1.2806744844e+01 -1.8015967397e+02  1.8125466230e+02  3.3000000000e-01 0. 9.
       -3     1     4     0     0   103  3.5925412729e+00  5.5631889802e+01 -4.8929394059e+01  7.4176472811e+01  5.0000000000e-01 0. 9.
        4     1     4     0   103     0 -9.8252405347e+00 -2.6710441033e+01 -3.5533303552e+01  4.5550506836e+01  1.5000000000e+00 0. 9.
#pdf    2   -2  6.311036e-03  8.682201e-02  8.485636e+01  8.248596e-01  8.590040e-02
</event>
<event>
     8  9999  1.000000e+00  9.586531e+01  7.821945e-03  1.289766e-01
       -2    -1     0     0     0   101  0.0000000000e+00  0.0000000000e+00  3.5024529815e+02  3.5024529815e+02  0.0000000000e+00 0. 9.
        2    -1     0     0   101     0  0.0000000000e+00  0.0000000000e+00 -4.7474775641e+02  4.7474775641e+02  0.0000000000e+00 0. 9.
      -24     2     1     2     0     0  4.5864387712e+01  2.1502752814e+01  3.3860080854e+02  3.5247487280e+02  8.3798078563e+01  3.662236e-14 9.
       24     2     1     2     0     0 -4.5864387712e+01 -2.1502752814e+01 -4.6310326680e+02  4.7251818176e+02  7.9011935395e+01  1.921038e-13 9.
       15     1     3     0     0     0  1.9336222920e+01 -2.8938831561e+01  7.3857337048e+01  8.1666448521e+01  1.7768200000e+00  2.958081e-02 9.
      -16     1     3     0     0     0  2.6528164792e+01  5.0441584374e+01  2.6474347149e+02  2.7080842428e+02  0.0000000000e+00 0. 9.
       -3     1     4     0     0   102 -2.9382408405e+01 -1.1708116277e+01 -5.1319210082e+01  6.0285298655e+01  5.0000000000e-01 0. 9.
        4     1     4     0   102     0 -1.6481979307e+01 -9.7946365366e+00 -4.1178405672e+02  4.1223288311e+02  1.5000000000e+00 0. 9.
#pdf   -2    2  8.756132e-02  1.186869e-01  9.385519e+01  8.484608e-02  5.716234e-01
</event>
<event>
     8  9999  1.000000e+00  9.015424e+01  7.816500e-03  1.302355e-01
        1    -1     0     0   101     0  0.0000000000e+00  0.0000000000e+00  3.0125433002e+02  3.0125433002e+02  0.0000000000e+00 0. 9.
       -1    -1     0     0     0   101  0.0000000000e+00  0.0000000000e+00 -3.0600743990e+02  3.0600743990e+02  0.0000000000e+00 0. 9.
      -24     2     1     2     0     0 -2.7289164638e+01  4.5986159057e+00  2.8752692990e+02  3.0220909948e+02  8.8841198859e+01  9.133289e-16 9.
       24     2     1     2     0     0  2.7289164638e+01 -4.5986159057e+00 -2.9228003978e+02  3.0505267044e+02  8.2847234815e+01  2.973416e-14 9.
        1     1     3     0   102     0 -3.3775573032e+01  2.9627879979e+01  2.6217231268e+02  2.6599441919e+02  3.3000000000e-01 0. 9.
       -2     1     3     0     0   102  6.4864083936e+00 -2.5029264073e+01  2.5354617224e+01  3.6214680290e+01  3.3000000000e-01 0. 9.
       -1     1     4     0     0   103  3.2897782966e+01  7.0316733186e+00 -2.8999004968e+02  2.9193500367e+02  3.3000000000e-01 0. 9.
        2     1     4     0   103     0 -5.6086183274e+00 -1.1630289224e+01 -2.2899901004e+00  1.3117666776e+01  3.3000000000e-01 0. 9.
#pdf    1   -1  7.531358e-02  7.650186e-02  8.734707e+01  3.934377e-01  1.306229e-01
</event>
<event>
     8  9999  1.000000e+00  1.037893e+02  7.828997e-03  1.273845e-01
       -1    -1     0     0     0   101  0.0000000000e+00  0.0000000000e+00  2.7432949640e+01  2.7432949640e+01  0.0000000000e+00 0. 9.
        2    -1     0     0   101     0  0.0000000000e+00  0.0000000000e+00 -8.4889114720e+02  8.4889114720e+02  0.0000000000e+00 0. 9.
       23     2     1     2     0     0 -9.5729595978e+00 -5.8115936479e+01 -7.3939557876e+02  7.4726179287e+02  9.0693227776e+01  2.530756e-14 9.
       24     2     1     2     0     0  9.5729595978e+00  5.8115936479e+01 -8.2062618805e+01  1.2906230397e+02  8.0334931840e+01  1.638144e-13 9.
        3     1     3     0   102     0  1.0511395880e+01 -3.0789970743e+01 -7.2070872031e+01  7.9075737980e+01  5.0000000000e-01 0. 9.
       -3     1     3     0     0   102 -2.0084355478e+01 -2.7325965735e+01 -6.6732470673e+02  6.6818605489e+02  5.0000000000e-01 0. 9.
      -11     1     4     0     0     0  1.5827308951e+01  2.5619354555e+01  9.6013072700e+00  3.1607596207e+01  5.1100000000e-04 0. 9.
       12     1     4     0     0     0 -6.2543493529e+00  3.2496581924e+01 -9.1663926075e+01  9.7454707767e+01  0.0000000000e+00 0. 9.
#pdf   -1    2  6.858237e-03  2.122228e-01  9.961328e+01  6.322264e-01  4.528372e-01
</event>
<event>
     8  9999  1.000000e+00  1.019240e+02  7.827386e-03  1.277446e-01
       -1    -1     0     0     0   101  0.0000000000e+00  0.0000000000e+00  3.1953360092e+01  3.1953360092e+01  0.0000000000e+00 0. 9.
        2    -1     0     0   101     0  0.0000000000e+00  0.0000000000e+00 -8.7256953202e+02  8.7256953202e+02  0.0000000000e+00 0. 9.
       23     2     1     2     0     0  5.7553218426e+01  3.3688408577e+00 -7.8509999058e+02  7.9229132601e+02  8.9553492490e+01  5.653636e-14 9.
       24     2     1     2     0     0 -5.7553218426e+01 -3.3688408577e+00 -5.5516181344e+01  1.1223156610e+02  7.8677544437e+01  1.719220e-13 9.
        2     1     3     0   102     0  7.6052808002e+01  9.2783033657e+00 -4.3817711970e+02  4.4482514952e+02  3.3000000000e-01 0. 9.
       -2     1     3     0     0   102 -1.8499589576e+01 -5.9094625081e+00 -3.4692287088e+02  3.4746617649e+02  3.3000000000e-01 0. 9.
       -3     1     4     0     0   103 -6.2439458904e+01 -2.4440871177e+01 -1.8883357596e+01  6.9662568186e+01  5.0000000000e-01 0. 9.
        4     1     4     0   103     0  4.8862404781e+00  2.1072030319e+01 -3.6632823748e+01  4.2568997915e+01  1.5000000000e+00 0. 9.
#pdf   -1    2  7.988340e-03  2.181424e-01  9.753911e+01  5.857093e-01  4.451842e-01
</event>
<event>
     8  9999  1.000000e+00  8.537148e+01  7.811674e-03  1.313735e-01
       -1    -1     0     0     0   101  0.0000000000e+00  0.0000000000e+00  6.1811306353e+00  6.1811306353e+00  0.0000000000e+00 0. 9.
        1    -1     0     0   101     0  0.0000000000e+00  0.0000000000e+00 -1.1858276343e+03  1.1858276343e+03  0.0000000000e+00 0. 9.
      -24     2     1     2     0     0  1.9617185344e+01 -7.5985130436e+00 -5.3097972937e+02  5.3739925252e+02  8.0099389759e+01  5.824552e-15 9.
       24     2     1     2     0     0 -1.9617185344e+01  7.5985130436e+00 -6.4866677424e+02  6.5460951237e+02  8.5454422450e+01  1.025652e-13 9.
       13     1     3     0     0     0  3.5521743132e+01 -3.4983569132e+01 -3.6899408380e+02  3.7234700132e+02  1.0566000000e-01  1.043884e+06 9.
      -14     1     3     0     0     0 -1.5904557789e+01  2.7385056089e+01 -1.6198564557e+02  1.6505225120e+02  0.0000000000e+00 0. 9.
      -11     1     4     0     0     0  2.5257469576e+01  1.5083748479e+01 -4.4277793311e+02  4.4375416312e+02  5.1100000000e-04 0. 9.
       12     1     4     0     0     0 -4.4874654919e+01 -7.4852354356e+00 -2.0588884114e+02  2.1085534925e+02  0.0000000000e+00 0. 9.
#pdf   -1    1  1.545283e-03  2.964569e-01  8.281596e+01  1.203217e+00  1.406752e-01
</event>
<event>
     8  9999  1.000000e+00  1.001818e+02  7.825854e-03  1.280888e-01
        2    -1     0     0   101     0  0.0000000000e+00  0.0000000000e+00  1.1877196365e+03  1.1877196365e+03  0.0000000000e+00 0. 9.
       -2    -1     0     0     0   101  0.0000000000e+00  0.0000000000e+00 -8.4576216179e+00  8.4576216179e+00  0.0000000000e+00 0. 9.
       23     2     1     2     0     0  1.8457642934e+01 -3.5372269634e+01  5.7220466704e+02  5.8091888089e+02  9.1960225869e+01  6.377346e-14 9.
       23     2     1     2     0     0 -1.8457642934e+01  3.5372269634e+01  6.0705734787e+02  6.1525837726e+02  9.1827910507e+01  8.030038e-14 9.
       13     1     3     0     0     0 -1.7041858395e+01  1.6722241499e+01  5.5977271413e+01  6.0856588610e+01  1.0566000000e-01  1.579768e+04 9.
      -13     1     3     0     0     0  3.5499501328e+01 -5.2094511132e+01  5.1622739563e+02  5.2006229228e+02  1.0566000000e-01  4.546825e+05 9.
        5     1     4     0   105     0  1.1901559904e+01  5.0543792729e+01  5.0311219467e+02  5.0580751531e+02  4.8000000000e+00 0. 9.
       -5     1     4     0     0   105 -3.0359202838e+01 -1.5171523095e+01  1.0394515319e+02  1.0945086195e+02  4.8000000000e+00 0. 9.
#pdf    2   -2  2.969299e-01  2.114405e-03  1.001212e+02  3.323277e-01  1.070642e+00
</event>
<event>
     8  9999  1.000000e+00  9.566416e+01  7.821759e-03  1.290193e-01
       -2    -1     0     0     0   101  0.0000000000e+00  0.0000000000e+00  4.6113239817e+01  4.6113239817e+01  0.0000000000e+00 0. 9.
        2    -1     0     0   101     0  0.0000000000e+00  0.0000000000e+00 -7.4457112012e+02  7.4457112012e+02  0.0000000000e+00 0. 9.
      -24     2     1     2     0     0 -4.1089042980e+01 -3.3090014599e+01 -1.0365317180e+01  9.5933142386e+01  7.9451050896e+01  5.951347e-14 9.
       24     2     1     2     0     0  4.1089042980e+01  3.3090014599e+01 -6.8809256313e+02  6.9475121755e+02  8.0153729449e+01  8.464830e-14 9.
       11     1     3     0     0     0 -7.6394987336e-01 -2.2207271631e+01 -3.9282814451e+01  4.5131873927e+01  5.1100000000e-04 0. 9.
      -12     1     3     0     0     0 -4.0325093107e+01 -1.0882742968e+01  2.8917497271e+01  5.0801268459e+01  0.0000000000e+00 0. 9.
      -11     1     4     0     0     0 -4.6668658620e+00 -1.8653154243e+01 -2.9579300180e+02  2.9641730671e+02  5.1100000000e-04 0. 9.
       12     1     4     0     0     0  4.5755908842e+01  5.1743168842e+01 -3.9229956132e+02  3.9833391085e+02  0.0000000000e+00 0. 9.
#pdf   -2    2  1.152831e-02  1.861428e-01  9.537153e+01  4.604224e-01  4.903012e-01
</event>
<event>
     8  9999  1.000000e+00  8.146862e+01  7.807535e-03  1.323664e-01
       -4    -1     0     0     0   101  0.0000000000e+00  0.0000000000e+00  3.8251196816e+01  3.8251196816e+01  0.0000000000e+00 0. 9.
        4    -1     0     0   101     0  0.0000000000e+00  0.0000000000e+00 -3.1226978638e+02  3.1226978638e+02  0.0000000000e+00 0. 9.
      -24     2     1     2     0     0 -8.4839636048e+00 -3.2525977026e+01 -1.6192029128e+01  7.8657866471e+01  6.9245659290e+01  9.990891e-14 9.
       24     2     1     2     0     0  8.4839636048e+00  3.2525977026e+01 -2.5782656043e+02  2.7186311672e+02  7.9404673345e+01  2.973695e-14 9.
        1     1     3     0   102     0  5.9552991154e+00 -6.6139066864e+00 -3.9775522444e+01  4.0760402781e+01  3.3000000000e-01 0. 9.
       -2     1     3     0     0   102 -1.4439262720e+01 -2.5912070340e+01  2.3583493315e+01  3.7897463690e+01  3.3000000000e-01 0. 9.
      -15     1     4     0     0     0 -8.2133582815e+00  1.1088837530e+01 -1.3805950233e+00  1.3981584458e+01  1.7768200000e+00  5.549321e-03 9.
       16     1     4     0     0     0  1.6697321886e+01  2.1437139496e+01 -2.5644596541e+02  2.5788153226e+02  0.0000000000e+00 0. 9.
#pdf   -4    4  9.562799e-03  7.806745e-02  7.697323e+01  2.907651e-01  4.707125e-02
</event>
<event>
     8  9999  1.000000e+00  1.045147e+02  7.829616e-03  1.272468e-01
       -2    -1     0     0     0   101  0.0000000000e+00  0.0000000000e+00  1.0662248188e+01  1.0662248188e+01  0.0000000000e+00 0. 9.
        2    -1     0     0   101     0  0.0000000000e+00  0.0000000000e+00 -1.0605039771e+03  1.0605039771e+03  0.0000000000e+00 0. 9.
      -24     2     1     2     0     0  6.4612504207e+01 -1.6975538833e+01 -6.2466320647e+02  6.3338185859e+02  8.0656758262e+01  4.284410e-14 9.
       24     2     1     2     0     0 -6.4612504207e+01  1.6975538833e+01 -4.2517852244e+02  4.3778436670e+02  8.0096386692e+01  2.529272e-13 9.
        1     1     3     0   102     0  2.0352638858e+01  2.3263107045e+01 -3.8969218572e+02  3.9091624496e+02  3.3000000000e-01 0. 9.
       -2     1     3     0     0   102  4.4259865349e+01 -4.0238645878e+01 -2.3497102074e+02  2.4246561363e+02  3.3000000000e-01 0. 9.
      -15     1     4     0     0     0 -4.2142927692e+01 -2.8634177951e+01 -2.6025451411e+02  2.6520088934e+02  1.7768200000e+00  2.759257e-01 9.
       16     1     4     0     0     0 -2.2469576515e+01  4.5609716783e+01 -1.6492400833e+02  1.7258347736e+02  0.0000000000e+00 0. 9.
#pdf   -2    2  2.665562e-03  2.651260e-01  1.042995e+02  9.700119e-01  3.757143e-01
</event>
<event>
     8  9999  1.000000e+00  1.182389e+02  7.840599e-03  1.248550e-01
        2    -1     0     0   101     0  0.0000000000e+00  0.0000000000e+00  1.1373246966e+03  1.1373246966e+03  0.0000000000e+00 0. 9.
       -2    -1     0     0     0   101  0.0000000000e+00  0.0000000000e+00 -1.3705838052e+01  1.3705838052e+01  0.0000000000e+00 0. 9.
      -24     2     1     2     0     0  2.8197908957e+01 -8.1549171020e+01  3.7856622124e+02  3.9671150354e+02  8.1377170085e+01  9.219483e-14 9.
       24     2     1     2     0     0 -2.8197908957e+01  8.1549171020e+01  7.4505263731e+02  7.5431903112e+02  8.0301799352e+01  1.530775e-13 9.
        1     1     3     0   102     0 -2.2374481543e+00 -1.9952806322e+01  2.5115108986e+02  2.5195257390e+02  3.3000000000e-01 0. 9.
       -2     1     3     0     0   102  3.0435357111e+01 -6.1596364698e+01  1.2741513138e+02  1.4475892964e+02  3.3000000000e-01 0. 9.
      -15     1     4     0     0     0 -4.9137017341e+01  6.1512147300e+01  6.5502103209e+02  6.5973775116e+02  1.7768200000e+00  7.503231e-02 9.
       16     1     4     0     0     0  2.0939108384e+01  2.0037023720e+01  9.0031605222e+01  9.4581279957e+01  0.0000000000e+00 0. 9.
#pdf    2   -2  2.843312e-01  3.426460e-03  1.178718e+02  3.442990e-01  8.755585e-01
</event>
<event>
     8  9999  1.000000e+00  1.159856e+02  7.838884e-03  1.252220e-01
        1    -1     0     0   101     0  0.0000000000e+00  0.0000000000e+00  1.4724083902e+03  1.4724083902e+03  0.0000000000e+00 0. 9.
       -1    -1     0     0     0   101  0.0000000000e+00  0.0000000000e+00 -2.9426622412e+01  2.9426622412e+01  0.0000000000e+00 0. 9.
       23     2     1     2     0     0 -4.5659368553e+01 -5.4048940879e+01  1.3449345241e+03  1.3499221973e+03  9.1842250100e+01  1.725249e-14 9.
       23     2     1     2     0     0  4.5659368553e+01  5.4048940879e+01  9.8047243712e+01  1.5191281526e+02  9.1968339627e+01  1.964427e-14 9.
        5     1     3     0   102     0 -2.9941469703e+01 -4.0561450550e+01  1.2903494381e+03  1.2913428806e+03  4.8000000000e+00 0. 9.
       -5     1     3     0     0   102 -1.5717898850e+01 -1.3487490329e+01  5.4585085967e+01  5.8579316739e+01  4.8000000000e+00 0. 9.
        5     1     4     0   103     0  6.0815188531e+01  1.4480530528e+00  4.9083928292e+01  7.8312553465e+01  4.8000000000e+00 0. 9.
       -5     1     4     0     0   103 -1.5155819978e+01  5.2600887826e+01  4.8963315420e+01  7.3600261794e+01  4.8000000000e+00 0. 9.
#pdf    1   -1  3.681021e-01  7.356656e-03  1.159356e+02  8.482903e-02  6.180671e-01
</event>
<event>
     8  9999  1.000000e+00  8.889946e+01  7.815258e-03  1.305263e-01
       -2    -1     0     0     0   101  0.0000000000e+00  0.0000000000e+00  1.1454855545e+01  1.1454855545e+01  0.0000000000e+00 0. 9.
        2    -1     0     0   101     0  0.0000000000e+00  0.0000000000e+00 -1.0682772268e+03  1.0682772268e+03  0.0000000000e+00 0. 9.
      -24     2     1     2     0     0 -3.2466838072e+01 -9.4128843100e+00 -2.1332879559e+02  2.3172959267e+02  8.3944810007e+01  7.299779e-14 9.
       24     2     1     2     0     0  3.2466838072e+01  9.4128843100e+00 -8.4349357564e+02  8.4800248965e+02  8.0523986095e+01  2.910228e-13 9.
        1     1     3     0   102     0  1.1624561786e+01 -1.6027806323e+01 -7.5770420967e+00  2.1202393242e+01  3.3000000000e-01 0. 9.
       -2     1     3     0     0   102 -4.4091399858e+01  6.6149220134e+00 -2.0575175349e+02  2.1052719943e+02  3.3000000000e-01 0. 9.
       -1     1     4     0     0   103  5.5340770859e+01  6.3724043046e-01 -3.9726340240e+02  4.0110014558e+02  3.3000000000e-01 0. 9.
        2     1     4     0   103     0 -2.2873932787e+01  8.7756438796e+00 -4.4623017324e+02  4.4690234407e+02  3.3000000000e-01 0. 9.
#pdf   -2    2  2.863714e-03  2.670693e-01  8.733161e+01  9.193422e-01  3.792664e-01
</event>
<event>
     8  9999  1.000000e+00  9.200643e+01  7.818302e-03  1.298160e-01
       -1    -1     0     0     0   101  0.0000000000e+00  0.0000000000e+00  2.1291213521e+01  2.1291213521e+01  0.0000000000e+00 0. 9.
        1    -1     0     0   101     0  0.0000000000e+00  0.0000000000e+00 -4.2239549550e+02  4.2239549550e+02  0.0000000000e+00 0. 9.
      -24     2     1     2     0     0 -4.9174604639e+00  4.4796357372e+01 -2.5433705171e+02  2.7047140649e+02  8.0228117302e+01  2.177202e-15 9.
       24     2     1     2     0     0  4.9174604639e+00 -4.4796357372e+01 -1.4676723027e+02  1.7321530253e+02  8.0199913331e+01  1.290541e-13 9.
       13     1     3     0     0     0 -2.2888668686e+01  4.3955870643e+01 -2.4545396971e+02  2.5040701293e+02  1.0566000000e-01  4.735569e+05 9.
      -14     1     3     0     0     0  1.7971208222e+01  8.4048672925e-01 -8.8830820024e+00  2.0064393556e+01  0.0000000000e+00 0. 9.
       -1     1     4     0     0   102  1.6173995873e+01 -3.1600970271e+01 -1.2218404088e+01  3.7544876655e+01  3.3000000000e-01 0. 9.
        4     1     4     0   102     0 -1.1256535409e+01 -1.3195387101e+01 -1.3454882618e+02  1.3567042588e+02  1.5000000000e+00 0. 9.
#pdf   -1    1  5.322803e-03  1.055989e-01  9.199414e+01  7.084016e-01  3.512838e-01
</event>
<event>
     8  9999  1.000000e+00  8.130984e+01  7.807363e-03  1.324081e-01
        1    -1     0     0   101     0  0.0000000000e+00  0.0000000000e+00  4.5269471709e+02  4.5269471709e+02  0.0000000000e+00 0. 9.
       -1    -1     0     0     0   101  0.0000000000e+00  0.0000000000e+00 -1.9405246737e+01  1.9405246737e+01  0.0000000000e+00 0. 9.
      -24     2     1     2     0     0 -2.6442270225e+00 -1.5518016391e+01  3.3170382536e+02  3.4125396905e+02  7.8606888134e+01  1.214626e-13 9.
       24     2     1     2     0     0  2.6442270225e+00  1.5518016391e+01  1.0158564499e+02  1.3084599478e+02  8.0952024757e+01  6.414136e-14 9.
       15     1     3     0     0     0 -9.9381666167e+00  3.1024727258e+01  1.1867312868e+02  1.2307627480e+02  1.7768200000e+00  2.369754e-02 9.
      -16     1     3     0     0     0  7.2939395941e+00 -4.6542743649e+01  2.1303069668e+02  2.1817769425e+02  0.0000000000e+00 0. 9.
       -3     1     4     0     0   102  1.4569544968e+01 -2.8074448518e+01  6.6399797122e+01  7.3550182583e+01  5.0000000000e-01 0. 9.
        4     1     4     0   102     0 -1.1925317945e+01  4.3592464909e+01  3.5185847867e+01  5.7295812194e+01  1.5000000000e+00 0. 9.
#pdf    1   -1  1.131737e-01  4.851312e-03  8.016760e+01  3.434291e-01  7.296163e-01
</event>
<event>
     8  9999  1.000000e+00  1.016887e+02  7.827180e-03  1.277906e-01
       -2    -1     0     0     0   101  0.0000000000e+00  0.0000000000e+00  4.4023139960e+02  4.4023139960e+02  0.0000000000e+00 0. 9.
        2    -1     0     0   101     0  0.0000000000e+00  0.0000000000e+00 -9.7460626544e+01  9.7460626544e+01  0.0000000000e+00 0. 9.
      -24     2     1     2     0     0 -4.3462530558e+01  2.0841633739e+01  4.0418874683e+02  4.1600137278e+02  8.5820940498e+01  3.913717e-14 9.
       24     2     1     2     0     0  4.3462530558e+01 -2.0841633739e+01 -6.1417973771e+01  1.2169065337e+02  9.3343892979e+01  5.581967e-15 9.
        3     1     3     0   102     0 -3.4863116887e+01  2.8891596701e+01  8.2632993819e+01  9.4226445048e+01  5.0000000000e-01 0. 9.
       -4     1     3     0     0   102 -8.5994136705e+00 -8.0499629623e+00  3.2155575301e+02  3.2177492773e+02  1.5000000000e+00 0. 9.
      -15     1     4     0     0     0  6.3443706459e+00 -4.4844140451e+01 -6.2821393615e+01  7.7465686318e+01  1.7768200000e+00  5.789184e-02 9.
       16     1     4     0     0     0  3.7118159912e+01  2.4002506712e+01  1.4034198437e+00  4.4224967054e+01  0.0000000000e+00 0. 9.
#pdf   -2    2  1.100578e-01  2.436516e-02  9.843068e+01  6.329488e-02  6.506595e-01
</event>
<event>
     8  9999  1.000000e+00  9.590333e+01  7.821980e-03  1.289686e-01
        2    -1     0     0   101     0  0.0000000000e+00  0.0000000000e+00  6.2471545252e+02  6.2471545252e+02  0.0000000000e+00 0. 9.
       -2    -1     0     0     0   101  0.0000000000e+00  0.0000000000e+00 -3.5718656760e+01  3.5718656760e+01  0.0000000000e+00 0. 9.
       23     2     1     2     0     0 -7.1466495247e-01 -2.2163007434e+00  3.5487514012e+01  9.7799323520e+01  9.1103903841e+01  1.235154e-13 9.
       23     2     1     2     0     0  7.1466495247e-01  2.2163007434e+00  5.5350928175e+02  5.6263478576e+02  1.0089576023e+02  8.189991e-14 9.
       11     1     3     0     0     0  2.3143426210e+01  5.6747453630e+00  5.8847811519e+01  6.3489257615e+01  5.1100000000e-04 0. 9.
      -11     1     3     0     0     0 -2.3858091162e+01 -7.8910461063e+00 -2.3360297506e+01  3.4310065905e+01  5.1100000000e-04 0. 9.
       14     1     4     0     0     0  2.1818070745e+01  3.3658458647e+01  4.6004974240e+02  4.6179506876e+02  0.0000000000e+00 0. 9.
      -14     1     4     0     0     0 -2.1103405793e+01 -3.1442157903e+01  9.3459539352e+01  1.0083971700e+02  0.0000000000e+00 0. 9.
#pdf    2   -2  1.561789e-01  8.929664e-03  9.113366e+01  5.303693e-01  5.293896e-01
</event>
<event>
     8  9999  1.000000e+00  8.478034e+01  7.811059e-03  1.315200e-01
       -1    -1     0     0     0   101  0.0000000000e+00  0.0000000000e+00  1.7273901052e+01  1.7273901052e+01  0.0000000000e+00 0. 9.
        2    -1     0     0   101     0  0.0000000000e+00  0.0000000000e+00 -7.5254501753e+02  7.5254501753e+02  0.0000000000e+00 0. 9.
       23     2     1     2     0     0 -2.6970444266e+01 -8.1158127757e+00 -1.2147623750e+02  1.5076936745e+02  8.4744643508e+01  7.020826e-15 9.
       24     2     1     2     0     0  2.6970444266e+01  8.1158127757e+00 -6.1379487897e+02  6.1904955112e+02  7.5398421845e+01  2.985033e-13 9.
        1     1     3     0   102     0  2.0922147274e+01 -1.2983248914e+01 -8.9865026214e+01  9.3177963250e+01  3.3000000000e-01 0. 9.
       -1     1     3     0     0   102 -4.7892591539e+01  4.8674361386e+00 -3.1611211289e+01  5.7591404203e+01  3.3000000000e-01 0. 9.
       -3     1     4     0     0   103 -2.5121836282e+01  8.7630859803e+00 -2.7279179313e+02  2.7408668471e+02  5.0000000000e-01 0. 9.
        4     1     4     0   103     0  5.2092280547e+01 -6.4727320455e-01 -3.4100308584e+02  3.4496286641e+02  1.5000000000e+00 0. 9.
#pdf   -1    2  4.318475e-03  1.881363e-01  8.048722e+01  7.694781e-01  4.930489e-01
</event>
<event>
     8  9999  1.000000e+00  1.020715e+02  7.827514e-03  1.277158e-01
        1    -1     0     0   101     0  0.0000000000e+00  0.0000000000e+00  1.2914516820e+02  1.2914516820e+02  0.0000000000e+00 0. 9.
       -2    -1     0     0     0   101  0.0000000000e+00  0.0000000000e+00 -1.5021672707e+02  1.5021672707e+02  0.0000000000e+00 0. 9.
       23     2     1     2     0     0  3.9184785539e+00 -5.1609670034e+00  8.4543628701e+01  1.3192079388e+02  1.0106176651e+02  4.831073e-14 9.
      -24     2     1     2     0     0 -3.9184785539e+00  5.1609670034e+00 -1.0561518758e+02  1.4744110139e+02  1.0267580278e+02  8.713230e-14 9.
        5     1     3     0   102     0 -3.4837891020e+01  2.6471834214e+01  6.3891914722e+01  7.7586425515e+01  4.8000000000e+00 0. 9.
       -5     1     3     0     0   102  3.8756369574e+01 -3.1632801218e+01  2.0651713979e+01  5.4334368365e+01  4.8000000000e+00 0. 9.
       15     1     4     0     0     0 -3.3023656010e+01  9.3002274104e+00  3.4089557432e+00  3.4522951130e+01  1.7768200000e+00  6.414328e-02 9.
      -16     1     4     0     0     0  2.9105177456e+01 -4.1392604069e+00 -1.0902414332e+02  1.1291815026e+02  0.0000000000e+00 0. 9.
#pdf    1   -2  3.228629e-02  3.755418e-02  1.012693e+02  4.797261e-01  2.023431e-01
</event>
<event>
     8  9999  1.000000e+00  8.526341e+01  7.811562e-03  1.314002e-01
        2    -1     0     0   101     0  0.0000000000e+00  0.0000000000e+00  5.9513018617e+02  5.9513018617e+02  0.0000000000e+00 0. 9.
       -2    -1     0     0     0   101  0.0000000000e+00  0.0000000000e+00 -1.2963993470e+01  1.2963993470e+01  0.0000000000e+00 0. 9.
      -24     2     1     2     0     0 -2.0202220751e+01  6.7186388790e+00  2.2449300735e+02  2.4083217721e+02  8.4556238096e+01  1.898827e-14 9.
       24     2     1     2     0     0  2.0202220751e+01 -6.7186388790e+00  3.5767318535e+02  3.6726200243e+02  8.0610179726e+01  8.700526e-14 9.
        1     1     3     0   102     0 -5.2989323693e+01  3.2575547737e+00  1.5664450412e+02  1.6539676435e+02  3.3000000000e-01 0. 9.
       -2     1     3     0     0   102  3.2787102942e+01  3.4610841053e+00  6.7848503233e+01  7.5435412861e+01  3.3000000000e-01 0. 9.
       -1     1     4     0     0   103  4.5739983116e+01 -2.0715258931e+01  2.7649726605e+02  2.8101977696e+02  3.3000000000e-01 0. 9.
        2     1     4     0   103     0 -2.5537762365e+01  1.3996620052e+01  8.1175919305e+01  8.6242225473e+01  3.3000000000e-01 0. 9.
#pdf    2   -2  1.487825e-01  3.240998e-03  8.337428e+01  5.416502e-01  8.645063e-01
</event>
<event>
     8  9999  1.000000e+00  1.116261e+02  7.835472e-03  1.259594e-01
       -1    -1     0     0     0   101  0.0000000000e+00  0.0000000000e+00  6.0433641989e+02  6.0433641989e+02  0.0000000000e+00 0. 9.
        2    -1     0     0   101     0  0.0000000000e+00  0.0000000000e+00 -1.0105368049e+02  1.0105368049e+02  0.0000000000e+00 0. 9.
       23     2     1     2     0     0  2.0712937255e+01 -7.1681273508e+01  5.6900524278e+02  5.8114861685e+02  9.1648883304e+01  1.323693e-13 9.
       24     2     1     2     0     0 -2.0712937255e+01  7.1681273508e+01 -6.5722503383e+01  1.2424148354e+02  7.4493409367e+01  7.073895e-14 9.
       14     1     3     0     0     0 -1.9084380057e+01 -2.1108685926e+01  4.5247284813e+01  5.3451912657e+01  0.0000000000e+00 0. 9.
      -14     1     3     0     0     0  3.9797317312e+01 -5.0572587582e+01  5.2375795797e+02  5.2769670419e+02  0.0000000000e+00 0. 9.
      -15     1     4     0     0     0  1.2987449489e+01 -7.8176640774e+00 -2.3755888206e+01  2.8236306941e+01  1.7768200000e+00  6.338992e-02 9.
       16     1     4     0     0     0 -3.3700386744e+01  7.9498937586e+01 -4.1966615177e+01  9.6005176596e+01  0.0000000000e+00 0. 9.
#pdf   -1    2  1.510841e-01  2.526342e-02  1.054348e+02  5.519444e-02  6.497108e-01
</event>
<event>
     8  9999  1.000000e+00  1.192012e+02  7.841321e-03  1.247010e-01
       -2    -1     0     0     0   101  0.0000000000e+00  0.0000000000e+00  1.6463350148e+01  1.6463350148e+01  0.0000000000e+00 0. 9.
        2    -1     0     0   101     0  0.0000000000e+00  0.0000000000e+00 -9.7266204864e+02  9.7266204864e+02  0.0000000000e+00 0. 9.
      -24     2     1     2     0     0  6.8423276412e+01  5.5569177906e+01 -3.1222218923e+02  3.3421655438e+02  8.0301503641e+01  1.310414e-13 9.
       24     2     1     2     0     0 -6.8423276412e+01 -5.5569177906e+01 -6.4397650926e+02  6.5490884441e+02  8.0188351481e+01  8.888723e-14 9.
       11     1     3     0     0     0  2.9664279248e+01  6.3838762822e+01 -2.5550544310e+02  2.6502526022e+02  5.1100000000e-04 0. 9.
      -12     1     3     0     0     0  3.8758997164e+01 -8.2695849162e+00 -5.6716746130e+01  6.9191294159e+01  0.0000000000e+00 0. 9.
      -11     1     4     0     0     0  3.6986805239e+00  1.4948887308e+01 -4.6663097742e+01  4.9138520129e+01  5.1100000000e-04 0. 9.
       12     1     4     0     0     0 -7.2121956936e+01 -7.0518065214e+01 -5.9731341152e+02  6.0577032428e+02  0.0000000000e+00 0. 9.
#pdf   -2    2  4.115838e-03  2.431655e-01  1.191631e+02  8.031430e-01  4.025935e-01
</event>
<event>
     8  9999  1.000000e+00  9.156049e+01  7.817871e-03  1.299160e-01
       -2    -1     0     0     0   101  0.0000000000e+00  0.0000000000e+00  3.9525636551e+02  3.9525636551e+02  0.0000000000e+00 0. 9.
        1    -1     0     0   101     0  0.0000000000e+00  0.0000000000e+00 -5.3963747166e+01  5.3963747166e+01  0.0000000000e+00 0. 9.
       23     2     1     2     0     0  3.0006420056e+01 -1.7498169038e+01  3.4830171610e+02  3.6115681510e+02  8.8958352587e+01  1.147627e-14 9.
      -24     2     1     2     0     0 -3.0006420056e+01  1.7498169038e+01 -7.0090977546e+00  8.8063297571e+01  8.0619140181e+01  6.910540e-14 9.
        3     1     3     0   102     0 -2.9418216215e+01  7.9811064561e+00  9.7535402307e+01  1.0218871860e+02  5.0000000000e-01 0. 9.
       -3     1     3     0     0   102  5.9424636270e+01 -2.5479275495e+01  2.5076631379e+02  2.5896809650e+02  5.0000000000e-01 0. 9.
        3     1     4     0   103     0 -3.9899943238e+00 -1.0779190438e+01 -3.7349402399e+01  3.9081182950e+01  5.0000000000e-01 0. 9.
       -4     1     4     0     0   103 -2.6016425732e+01  2.8277359476e+01  3.0340304645e+01  4.8982114621e+01  1.5000000000e+00 0. 9.
#pdf   -2    1  9.881409e-02  1.349094e-02  8.778392e+01  7.310357e-02  5.964638e-01
</event>
<event>
     8  9999  1.000000e+00  8.434982e+01  7.810609e-03  1.316276e-01
        4    -1     0     0   101     0  0.0000000000e+00  0.0000000000e+00  2.6369305618e+02  2.6369305618e+02  0.0000000000e+00 0. 9.
       -4    -1     0     0     0   101  0.0000000000e+00  0.0000000000e+00 -2.8633022316e+01  2.8633022316e+01  0.0000000000e+00 0. 9.
      -24     2     1     2     0     0 -2.4551627223e+01  1.3073182852e+00  1.5083039731e+02  1.7218104017e+02  7.9322193383e+01  9.997055e-14 9.
       24     2     1     2     0     0  2.4551627223e+01 -1.3073182852e+00  8.4229636559e+01  1.2014503832e+02  8.2071353580e+01  3.597873e-14 9.
        3     1     3     0   102     0 -2.9632336772e+01 -3.1971348335e+01  5.2461591169e+01  6.8210783934e+01  5.0000000000e-01 0. 9.
       -2     1     3     0     0   102  5.0807095490e+00  3.3278666620e+01  9.8368806137e+01  1.0397025624e+02  3.3000000000e-01 0. 9.
       -1     1     4     0     0   103  2.6735813192e+01 -9.3676156205e-01 -7.9715999878e+00  2.7916599643e+01  3.3000000000e-01 0. 9.
        2     1     4     0   103     0 -2.1841859689e+00 -3.7055672317e-01  9.2201236547e+01  9.2228438681e+01  3.3000000000e-01 0. 9.
#pdf    4   -4  6.592326e-02  7.158256e-03  8.304518e+01  5.738094e-02  3.544572e-01
</event>
<event>
     8  9999  1.000000e+00  9.322295e+01  7.819466e-03  1.295465e-01
       -2    -1     0     0     0   101  0.0000000000e+00  0.0000000000e+00  1.2684466292e+01  1.2684466292e+01  0.0000000000e+00 0. 9.
        2    -1     0     0   101     0  0.0000000000e+00  0.0000000000e+00 -1.6103272839e+03  1.6103272839e+03  0.0000000000e+00 0. 9.
      -24     2     1     2     0     0 -2.5355381749e+01 -3.5104359331e+01 -1.8972065470e+02  2.1211173102e+02  8.4393413197e+01  8.031288e-14 9.
       24     2     1     2     0     0  2.5355381749e+01  3.5104359331e+01 -1.4079221629e+03  1.4109000191e+03  8.0739307951e+01  2.408523e-14 9.
        3     1     3     0   102     0  4.1589331463e+00  2.4722027241e+01 -7.8526132355e+01  8.2432268065e+01  5.0000000000e-01 0. 9.
       -4     1     3     0     0   102 -2.9514314895e+01 -5.9826386572e+01 -1.1119452234e+02  1.2967946296e+02  1.5000000000e+00 0. 9.
       -3     1     4     0     0   103  1.7822915420e+01 -6.9262446184e+00 -7.8694095219e+01  8.0985429559e+01  5.0000000000e-01 0. 9.
        4     1     4     0   103     0  7.5324663289e+00  4.2030603950e+01 -1.3292280676e+03  1.3299145896e+03  1.5000000000e+00 0. 9.
#pdf   -2    2  3.171117e-03  4.025818e-01  9.161903e+01  8.827664e-01  2.017694e-01
</event>
<event>
     8  9999  1.000000e+00  1.010926e+02  7.826658e-03  1.279079e-01
        5    -1     0     0   101     0  0.0000000000e+00  0.0000000000e+00  6.7268903724e+01  6.7268903724e+01  0.0000000000e+00 0. 9.
       -5    -1     0     0     0   101  0.0000000000e+00  0.0000000000e+00 -1.6080158822e+02  1.6080158822e+02  0.0000000000e+00 0. 9.
      -24     2     1     2     0     0  7.1986611302e+00  6.1265615279e+01 -1.9369898386e+01  1.0147288319e+02  7.8206500509e+01  9.600268e-14 9.
       24     2     1     2     0     0 -7.1986611302e+00 -6.1265615279e+01 -7.4162786106e+01  1.2659760875e+02  8.1984994726e+01  6.917854e-14 9.
        1     1     3     0   102     0  1.5846709772e+01  6.1355768298e+01  1.5753581273e+01  6.5298795831e+01  3.3000000000e-01 0. 9.
       -2     1     3     0     0   102 -8.6480486420e+00 -9.0153019226e-02 -3.5123479659e+01  3.6174087359e+01  3.3000000000e-01 0. 9.
       -3     1     4     0     0   103  1.1608462996e+01 -2.2478463921e+01 -7.9226275155e+01  8.3169047297e+01  5.0000000000e-01 0. 9.
        4     1     4     0   103     0 -1.8807124126e+01 -3.8787151358e+01  5.0634890496e+00  4.3428561451e+01  1.5000000000e+00 0. 9.
#pdf    5   -5  1.681723e-02  4.020040e-02  9.960699e+01  1.358923e-01  6.105165e-02
</event>
<event>
     8  9999  1.000000e+00  1.036059e+02  7.828840e-03  1.274195e-01
       -2    -1     0     0     0   101  0.0000000000e+00  0.0000000000e+00  2.2384106127e+01  2.2384106127e+01  0.0000000000e+00 0. 9.
        2    -1     0     0   101     0  0.0000000000e+00  0.0000000000e+00 -1.1335346826e+03  1.1335346826e+03  0.0000000000e+00 0. 9.
      -24     2     1     2     0     0 -6.2230084545e+01 -8.2897188861e+00 -1.1761230439e+02  1.5704015748e+02  8.2991891504e+01  1.093861e-13 9.
       24     2     1     2     0     0  6.2230084545e+01  8.2897188861e+00 -9.9353827211e+02  9.9887863127e+02  8.1846924246e+01  4.763471e-15 9.
        3     1     3     0   102     0 -2.1007001160e+01  3.5428438046e+01 -6.6077615405e+01  7.7865072900e+01  5.0000000000e-01 0. 9.
       -4     1     3     0     0   102 -4.1223083385e+01 -4.3718156932e+01 -5.1534688986e+01  7.9175084580e+01  1.5000000000e+00 0. 9.
       -3     1     4     0     0   103  1.8498764751e+01 -1.8866719319e+01 -8.8134002655e+01  9.2010922282e+01  5.0000000000e-01 0. 9.
        4     1     4     0   103     0  4.3731319795e+01  2.7156438205e+01 -9.0540426945e+02  9.0686770899e+02  1.5000000000e+00 0. 9.
#pdf   -2    2  5.596027e-03  2.833837e-01  1.031515e+02  6.814638e-01  3.502209e-01
</event>
<event>
     8  9999  1.000000e+00  2.250628e+02  7.898398e-03  1.140830e-01
       -1    -1     0     0     0   101  0.0000000000e+00  0.0000000000e+00  6.5647881424e+01  6.5647881424e+01  0.0000000000e+00 0. 9.
        1    -1     0     0   101     0  0.0000000000e+00  0.0000000000e+00 -9.0128459287e+02  9.0128459287e+02  0.0000000000e+00 0. 9.
      -24     2     1     2     0     0  8.4964473996e+01 -1.0528734241e+02 -4.8295921541e+02  5.8093050128e+02  2.9313180868e+02  1.725869e-15 9.
       24     2     1     2     0     0 -8.4964473996e+01  1.0528734241e+02 -3.5267749604e+02  3.8600197301e+02  7.9446338123e+01  4.587710e-14 9.
        3     1     3     0   102     0  1.0052554763e+01 -1.7130878590e+02 -4.3988543153e+02  4.7217284638e+02  5.0000000000e-01 0. 9.
       -4     1     3     0     0   102  7.4911919232e+01  6.6021443488e+01 -4.3073783877e+01  1.0875765491e+02  1.5000000000e+00 0. 9.
       -3     1     4     0     0   103 -3.2264224828e+01  5.1805649859e+01 -6.7057457558e+01  9.0673911216e+01  5.0000000000e-01 0. 9.
        4     1     4     0   103     0 -5.2700249168e+01  5.3481692553e+01 -2.8562003848e+02  2.9532806180e+02  1.5000000000e+00 0. 9.
#pdf   -1    1  1.641197e-02  2.253211e-01  1.568952e+02  4.088380e-01  1.967660e-01
</event>
<event>
     8  9999  1.000000e+00  1.254312e+02  7.845866e-03  1.237418e-01
       -2    -1     0     0     0   101  0.0000000000e+00  0.0000000000e+00  2.7964057855e+02  2.7964057855e+02  0.0000000000e+00 0. 9.
        2    -1     0     0   101     0  0.0000000000e+00  0.0000000000e+00 -6.8764563347e+01  6.8764563347e+01  0.0000000000e+00 0. 9.
      -24     2     1     2     0     0  7.8504213159e+01  1.6804901157e+01  1.6617472500e+02  1.9988200550e+02  7.6768878488e+01  9.601093e-14 9.
       24     2     1     2     0     0 -7.8504213159e+01 -1.6804901157e+01  4.4701290202e+01  1.4852313640e+02  1.1668590538e+02  1.179345e-13 9.
        3     1     3     0   102     0  4.9980586816e+01  3.4929083915e+01  4.9920635306e+01  7.8806216703e+01  5.0000000000e-01 0. 9.
       -4     1     3     0     0   102  2.8523626343e+01 -1.8124182758e+01  1.1625408970e+02  1.2107578879e+02  1.5000000000e+00 0. 9.
       -1     1     4     0     0   103 -4.3279316732e+00 -5.6735355630e+01  2.4129655940e+01  6.1805992968e+01  3.3000000000e-01 0. 9.
        2     1     4     0   103     0 -7.4176281486e+01  3.9930454473e+01  2.0571634262e+01  8.6717143436e+01  3.3000000000e-01 0. 9.
#pdf   -2    2  6.991014e-02  1.719114e-02  1.110800e+02  1.099901e-01  6.811293e-01
</event>
<event>
     8  9999  1.000000e+00  1.065327e+02  7.831316e-03  1.268700e-01
       -2    -1     0     0     0   101  0.0000000000e+00  0.0000000000e+00  3.5815398637e+01  3.5815398637e+01  0.0000000000e+00 0. 9.
        2    -1     0     0   101     0  0.0000000000e+00  0.0000000000e+00 -1.4824375687e+03  1.4824375687e+03  0.0000000000e+00 0. 9.
      -24     2     1     2     0     0  1.0438380482e+00 -6.9014121106e+01 -4.9329494020e+01  1.1685939616e+02  8.0365919276e+01  1.147637e-13 9.
       24     2     1     2     0     0 -1.0438380482e+00  6.9014121106e+01 -1.3972926760e+03  1.4013935711e+03  8.1933389402e+01  7.376436e-14 9.
        1     1     3     0   102     0  2.8070658986e+01 -3.4492437683e+01 -5.7054892421e+01  7.2339890810e+01  3.3000000000e-01 0. 9.
       -2     1     3     0     0   102 -2.7026820938e+01 -3.4521683423e+01  7.7253984006e+00  4.4519505352e+01  3.3000000000e-01 0. 9.
       -3     1     4     0     0   103  5.8512060734e+00 -2.0434410713e-01 -8.0599789940e+02  8.0601931875e+02  5.0000000000e-01 0. 9.
        4     1     4     0   103     0 -6.8950441216e+00  6.9218465213e+01 -5.9129477661e+02  5.9537425238e+02  1.5000000000e+00 0. 9.
#pdf   -2    2  8.953850e-03  3.706094e-01  1.059373e+02  5.343154e-01  2.344449e-01
</event>
<event>
     8  9999  1.000000e+00  1.690283e+02  7.872583e-03  1.184085e-01
       -2    -1     0     0     0   101  0.0000000000e+00  0.0000000000e+00  2.5077920393e+01  2.5077920393e+01  0.0000000000e+00 0. 9.
        2    -1     0     0   101     0  0.0000000000e+00  0.0000000000e+00 -1.2340379264e+03  1.2340379264e+03  0.0000000000e+00 0. 9.
      -24     2     1     2     0     0 -1.3169194384e+02 -7.0439273125e+01 -7.7795803271e+02  7.9604600083e+02  7.8524362567e+01  7.428836e-15 9.
       24     2     1     2     0     0  1.3169194384e+02  7.0439273125e+01 -4.3100197328e+02  4.6306984594e+02  7.9790488019e+01  3.859122e-15 9.
       11     1     3     0     0     0 -1.3089415028e+02 -4.6710522490e+01 -5.6825959793e+02  5.8500779664e+02  5.1100000000e-04 0. 9.
      -12     1     3     0     0     0 -7.9779356257e-01 -2.3728750636e+01 -2.0969843477e+02  2.1103820419e+02  0.0000000000e+00 0. 9.
       -3     1     4     0     0   102  1.2583277427e+02  3.1982625584e+01 -3.1492367775e+02  3.4063756139e+02  5.0000000000e-01 0. 9.
        4     1     4     0   102     0  5.8591695692e+00  3.8456647542e+01 -1.1607829553e+02  1.2243228456e+02  1.5000000000e+00 0. 9.
#pdf   -2    2  6.269480e-03  3.085095e-01  1.687321e+02  6.691312e-01  2.994065e-01
</event>
<event>
     8  9999  1.000000e+00  9.402627e+01  7.820227e-03  1.293710e-01
       -1    -1     0     0     0   101  0.0000000000e+00  0.0000000000e+00  7.9945690614e+01  7.9945690614e+01  0.0000000000e+00 0. 9.
        1    -1     0     0   101     0  0.0000000000e+00  0.0000000000e+00 -1.1297904668e+02  1.1297904668e+02  0.0000000000e+00 0. 9.
      -24     2     1     2     0     0 -4.7920346785e+01 -1.3370612184e+00 -2.4259674183e+00  9.3717889356e+01  8.0492298381e+01  1.510997e-13 9.
       24     2     1     2     0     0  4.7920346785e+01  1.3370612184e+00 -3.0607388646e+01  9.9206847937e+01  8.1283694977e+01  2.986158e-14 9.
        3     1     3     0   102     0 -6.8439970587e+01  6.2902278088e+00 -1.2013173324e+01  6.9772221357e+01  5.0000000000e-01 0. 9.
       -4     1     3     0     0   102  2.0519623801e+01 -7.6272890272e+00  9.5872059057e+00  2.3945667999e+01  1.5000000000e+00 0. 9.
      -11     1     4     0     0     0  5.7192968624e+01 -8.3600843411e+00  7.9840759387e+00  5.8349568456e+01  5.1100000000e-04 0. 9.
       12     1     4     0     0     0 -9.2726218384e+00  9.6971455595e+00 -3.8591464585e+01  4.0857279481e+01  0.0000000000e+00 0. 9.
#pdf   -1    1  1.998642e-02  2.824476e-02  9.368648e+01  3.572693e-01  4.940768e-01
</event>
<event>
     8  9999  1.000000e+00  1.216056e+02  7.843102e-03  1.243232e-01
        4    -1     0     0   101     0  0.0000000000e+00  0.0000000000e+00  1.7145430522e+01  1.7145430522e+01  0.0000000000e+00 0. 9.
       -4    -1     0     0     0   101  0.0000000000e+00  0.0000000000e+00 -9.5940481701e+02  9.5940481701e+02  0.0000000000e+00 0. 9.
       23     2     1     2     0     0  6.0898003044e+01  4.8089966573e+01 -3.3010152782e+02  3.5315665447e+02  9.8647819382e+01  1.280305e-13 9.
       23     2     1     2     0     0 -6.0898003044e+01 -4.8089966573e+01 -6.1215785867e+02  6.2339359306e+02  8.8662936339e+01  1.635270e-13 9.
       14     1     3     0     0     0  6.8212663799e+01  9.0133751298e+00 -1.1188732206e+02  1.3135060438e+02  0.0000000000e+00 0. 9.
      -14     1     3     0     0     0 -7.3146607551e+00  3.9076591443e+01 -2.1821420576e+02  2.2180605009e+02  0.0000000000e+00 0. 9.
       16     1     4     0     0     0 -2.6595964355e+01  1.7832679933e+00 -4.0155550233e+01  4.8197443700e+01  0.0000000000e+00 0. 9.
      -16     1     4     0     0     0 -3.4302038689e+01 -4.9873234566e+01 -5.7200230843e+02  5.7519614936e+02  0.0000000000e+00 0. 9.
#pdf    4   -4  4.286358e-03  2.398512e-01  1.178233e+02  5.126372e-01  8.586730e-03
</event>
<event>
     8  9999  1.000000e+00  8.827320e+01  7.814632e-03  1.306734e-01
        1    -1     0     0   101     0  0.0000000000e+00  0.0000000000e+00  5.5568589345e+02  5.5568589345e+02  0.0000000000e+00 0. 9.
       -1    -1     0     0     0   101  0.0000000000e+00  0.0000000000e+00 -1.7353417776e+01  1.7353417776e+01  0.0000000000e+00 0. 9.
      -24     2     1     2     0     0 -2.8478512937e+01  5.8439601758e+00  4.0070403039e+02  4.1087498954e+02  8.6077636440e+01  3.026555e-13 9.
       24     2     1     2     0     0  2.8478512937e+01 -5.8439601758e+00  1.3762844529e+02  1.6216432168e+02  8.0687673810e+01  3.638026e-13 9.
        1     1     3     0   102     0 -5.4231713970e+01  1.5394426395e+01  3.3419594625e+02  3.3891755126e+02  3.3000000000e-01 0. 9.
       -2     1     3     0     0   102  2.5753201033e+01 -9.5504662191e+00  6.6508084136e+01  7.1957438281e+01  3.3000000000e-01 0. 9.
       -1     1     4     0     0   103  4.1853510580e+01 -3.0417934852e+01  1.1526547887e+02  1.2634558412e+02  3.3000000000e-01 0. 9.
        2     1     4     0   103     0 -1.3374997644e+01  2.4573974676e+01  2.2362966419e+01  3.5818737560e+01  3.3000000000e-01 0. 9.
#pdf    1   -1  1.389215e-01  4.338354e-03  8.576525e+01  3.094872e-01  7.729922e-01
</event>
<event>
     8  9999  1.000000e+00  9.710545e+01  7.823086e-03  1.287163e-01
        1    -1     0     0   101     0  0.0000000000e+00  0.0000000000e+00  9.9144295375e+01  9.9144295375e+01  0.0000000000e+00 0. 9.
       -1    -1     0     0     0   101  0.0000000000e+00  0.0000000000e+00 -1.1534828384e+02  1.1534828384e+02  0.0000000000e+00 0. 9.
      -24     2     1     2     0     0  1.4026642500e+01  5.1840950681e+01  3.6785703939e+01  1.0429366965e+02  8.1484665101e+01  3.658734e-14 9.
       24     2     1     2     0     0 -1.4026642500e+01 -5.1840950681e+01 -5.2989692407e+01  1.1019890957e+02  8.0322234171e+01  2.235751e-13 9.
        1     1     3     0   102     0 -1.3409680906e+01  6.3157907125e+01  1.2103529022e+01  6.5691286250e+01  3.3000000000e-01 0. 9.
       -2     1     3     0     0   102  2.7436323406e+01 -1.1316956445e+01  2.4682174917e+01  3.8602383396e+01  3.3000000000e-01 0. 9.
       -1     1     4     0     0   103  3.3517657859e+01 -2.4365316854e+01 -2.6884873682e+01  4.9396430910e+01  3.3000000000e-01 0. 9.
        2     1     4     0   103     0 -4.7544300359e+01 -2.7475633826e+01 -2.6104818725e+01  6.0802478662e+01  3.3000000000e-01 0. 9.
#pdf    1   -1  2.478607e-02  2.883707e-02  9.662242e+01  5.100147e-01  2.847684e-01
</event>
<event>
     8  9999  1.000000e+00  2.109588e+02  7.892548e-03  1.150292e-01
       -1    -1     0     0     0   101  0.0000000000e+00  0.0000000000e+00  2.4759352064e+02  2.4759352064e+02  0.0000000000e+00 0. 9.
        1    -1     0     0   101     0  0.0000000000e+00  0.0000000000e+00 -2.1053355709e+02  2.1053355709e+02  0.0000000000e+00 0. 9.
       23     2     1     2     0     0  1.8317090943e+02 -4.9195337293e+01  1.0608670544e+02  2.3566708699e+02  9.1174686981e+01  4.935996e-14 9.
       23     2     1     2     0     0 -1.8317090943e+02  4.9195337293e+01 -6.9026741896e+01  2.2245999075e+02  9.3552087703e+01  4.737680e-15 9.
        2     1     3     0   102     0  1.5586088003e+02 -5.2340977617e+01  4.7800936699e+01  1.7122275057e+02  3.3000000000e-01 0. 9.
       -2     1     3     0     0   102  2.7310029393e+01  3.1456403238e+00  5.8285768745e+01  6.4444336421e+01  3.3000000000e-01 0. 9.
        4     1     4     0   103     0 -5.7747164006e+01  4.5543780862e+01  9.8884535891e+00  7.4222654495e+01  1.5000000000e+00 0. 9.
       -4     1     4     0     0   103 -1.2542374542e+02  3.6515564309e+00 -7.8915195485e+01  1.4823733625e+02  1.5000000000e+00 0. 9.
#pdf   -1    1  6.189838e-02  5.263339e-02  2.104390e+02  1.570497e-01  4.272136e-01
</event>
<event>
     8  9999  1.000000e+00  1.002871e+02  7.825948e-03  1.280678e-01
        2    -1     0     0   101     0  0.0000000000e+00  0.0000000000e+00  6.7507882993e+01  6.7507882993e+01  0.0000000000e+00 0. 9.
       -2    -1     0     0     0   101  0.0000000000e+00  0.0000000000e+00 -1.8490421360e+02  1.8490421360e+02  0.0000000000e+00 0. 9.
      -24     2     1     2     0     0  5.9956131215e+01 -4.3453144653e+00 -1.1355228579e+02  1.5047328116e+02  7.8322840262e+01  5.119360e-15 9.
       24     2     1     2     0     0 -5.9956131215e+01  4.3453144653e+00 -3.8440448217e+00  1.0193881544e+02  8.2238227023e+01  3.836935e-13 9.
        3     1     3     0   102     0  3.1265893127e+01  9.7732911749e+00 -2.7808677456e-01  3.2762793313e+01  5.0000000000e-01 0. 9.
       -4     1     3     0     0   102  2.8690238089e+01 -1.4118605640e+01 -1.1327419901e+02  1.1771048785e+02  1.5000000000e+00 0. 9.
       -3     1     4     0     0   103  1.4609693735e+01  9.6096581595e+00 -1.8811670671e+01  2.5688862069e+01  5.0000000000e-01 0. 9.
        4     1     4     0   103     0 -7.4565824950e+01 -5.2643436942e+00  1.4967625849e+01  7.6249953368e+01  1.5000000000e+00 0. 9.
#pdf    2   -2  1.687697e-02  4.622605e-02  9.873240e+01  6.796238e-01  1.679542e-01
</event>
<event>
     8  9999  1.000000e+00  1.843633e+02  7.880395e-03  1.170505e-01
        3    -1     0     0   101     0  0.0000000000e+00  0.0000000000e+00  1.1852127358e+02  1.1852127358e+02  0.0000000000e+00 0. 9.
       -3    -1     0     0     0   101  0.0000000000e+00  0.0000000000e+00 -3.1935042209e+02  3.1935042209e+02  0.0000000000e+00 0. 9.
      -24     2     1     2     0     0  1.0315286030e+01  1.6645985396e+02 -3.0188376078e+01  1.8618592176e+02  7.7062126270e+01  8.022845e-14 9.
       24     2     1     2     0     0 -1.0315286030e+01 -1.6645985396e+02 -1.7064077243e+02  2.5168577390e+02  8.0076010539e+01  1.855680e-14 9.
       13     1     3     0     0     0  3.5421592130e+01  1.2087003444e+02 -4.2083967015e+01  1.3279806421e+02  1.0566000000e-01  3.611039e+05 9.
      -14     1     3     0     0     0 -2.5106306100e+01  4.5589819520e+01  1.1895590938e+01  5.3387857549e+01  0.0000000000e+00 0. 9.
       -3     1     4     0     0   102 -3.1170081323e+01 -1.0997645059e+02 -1.4875730044e+02  1.8760431255e+02  5.0000000000e-01 0. 9.
        4     1     4     0   102     0  2.0854795293e+01 -5.6483403368e+01 -2.1883471996e+01  6.4081461354e+01  1.5000000000e+00 0. 9.
#pdf    3   -3  2.963032e-02  7.983761e-02  1.837222e+02  1.601141e-01  5.902338e-02
</event>
<event>
     8  9999  1.000000e+00  1.604632e+02  7.867913e-03  1.193049e-01
        1    -1     0     0   101     0  0.0000000000e+00  0.0000000000e+00  1.0690159266e+03  1.0690159266e+03  0.0000000000e+00 0. 9.
       -2    -1     0     0     0   101  0.0000000000e+00  0.0000000000e+00 -2.4127665287e+01  2.4127665287e+01  0.0000000000e+00 0. 9.
       23     2     1     2     0     0  9.7670170464e+01 -9.8083521828e+01  5.5372092305e+02  5.7792346186e+02  9.0712886024e+01  1.256242e-13 9.
      -24     2     1     2     0     0 -9.7670170464e+01  9.8083521828e+01  4.9116733828e+02  5.1522013005e+02  7.1039346556e+01  4.673265e-14 9.
        3     1     3     0   102     0  3.8662072691e+01 -5.3595290815e+01  4.1975747221e+02  4.2492798982e+02  5.0000000000e-01 0. 9.
       -3     1     3     0     0   102  5.9008097772e+01 -4.4488231013e+01  1.3396345084e+02  1.5299547204e+02  5.0000000000e-01 0. 9.
       11     1     4     0     0     0 -4.5119968517e+01  5.6153693152e+00  1.0000030019e+02  1.0985173631e+02  5.1100000000e-04 0. 9.
      -12     1     4     0     0     0 -5.2550201947e+01  9.2468152512e+01  3.9116703809e+02  4.0536839374e+02  0.0000000000e+00 0. 9.
#pdf    1   -2  2.672540e-01  6.031916e-03  1.555842e+02  1.557121e-01  6.786523e-01
</event>
<event>
     8  9999  1.000000e+00  1.055239e+02  7.830470e-03  1.270572e-01
        2    -1     0     0   101     0  0.0000000000e+00  0.0000000000e+00  1.0132572412e+02  1.0132572412e+02  0.0000000000e+00 0. 9.
       -2    -1     0     0     0   101  0.0000000000e+00  0.0000000000e+00 -2.6200955163e+02  2.6200955163e+02  0.0000000000e+00 0. 9.
      -24     2     1     2     0     0 -1.2162648661e+01  6.7748042042e+01 -2.1890591350e+02  2.4320931058e+02  8.0580658769e+01  1.437677e-13 9.
       24     2     1     2     0     0  1.2162648661e+01 -6.7748042042e+01  5.8222085993e+01  1.2012596516e+02  7.9389602504e+01  9.194546e-15 9.
       11     1     3     0     0     0  1.9108551969e+01 -1.0383961159e+01 -4.1442609411e+01  4.6802278606e+01  5.1100000000e-04 0. 9.
      -12     1     3     0     0     0 -3.1271200629e+01  7.8132003201e+01 -1.7746330409e+02  1.9640703198e+02  0.0000000000e+00 0. 9.
       -1     1     4     0     0   102 -2.3075088316e+01 -3.6422859184e+01 -2.5672396875e+00  4.3194721802e+01  3.3000000000e-01 0. 9.
        2     1     4     0   102     0  3.5237736976e+01 -3.1325182858e+01  6.0789325680e+01  7.6931243360e+01  3.3000000000e-01 0. 9.
#pdf    2   -2  2.533143e-02  6.550239e-02  1.050735e+02  6.494869e-01  1.182289e-01
</event>
<event>
     8  9999  1.000000e+00  8.811320e+01  7.814472e-03  1.307112e-01
       -1    -1     0     0     0   101  0.0000000000e+00  0.0000000000e+00  1.0183726184e+01  1.0183726184e+01  0.0000000000e+00 0. 9.
        2    -1     0     0   101     0  0.0000000000e+00  0.0000000000e+00 -1.0323671156e+03  1.0323671156e+03  0.0000000000e+00 0. 9.
       23     2     1     2     0     0 -1.9066773223e+01  5.4933011161e+00 -2.6834672434e+02  2.8414844362e+02  9.1305286520e+01  2.146191e-14 9.
       24     2     1     2     0     0  1.9066773223e+01 -5.4933011161e+00 -7.5383666503e+02  7.5840239813e+02  8.0689291344e+01  9.150328e-15 9.
        3     1     3     0   102     0  3.6659282449e+01 -3.8853555278e+00 -1.1081187768e+02  1.1678407945e+02  5.0000000000e-01 0. 9.
       -3     1     3     0     0   102 -5.5726055672e+01  9.3786566439e+00 -1.5753484666e+02  1.6736436417e+02  5.0000000000e-01 0. 9.
       -1     1     4     0     0   103 -1.2045843480e+01  3.2099440445e+01 -3.1616001810e+02  3.1801374556e+02  3.3000000000e-01 0. 9.
        2     1     4     0   103     0  3.1112616703e+01 -3.7592741561e+01 -4.3767664693e+02  4.4038865256e+02  3.3000000000e-01 0. 9.
#pdf   -1    2  2.545932e-03  2.580918e-01  8.309320e+01  9.745605e-01  3.938843e-01
</event>
<event>
     8  9999  1.000000e+00  1.195042e+02  7.841548e-03  1.246528e-01
       -2    -1     0     0     0   101  0.0000000000e+00  0.0000000000e+00  4.5841575129e+01  4.5841575129e+01  0.0000000000e+00 0. 9.
        2    -1     0     0   101     0  0.0000000000e+00  0.0000000000e+00 -3.8664654187e+02  3.8664654187e+02  0.0000000000e+00 0. 9.
      -24     2     1     2     0     0 -8.4661643117e+01 -2.3794829644e+01 -7.5579111831e+01  1.4175515076e+02  8.1538536222e+01  6.837094e-15 9.
       24     2     1     2     0     0  8.4661643117e+01  2.3794829644e+01 -2.6522585491e+02  2.9073296623e+02  8.0293933841e+01  3.862618e-14 9.
        3     1     3     0   102     0 -3.8590446827e+00 -2.9122828172e+01 -4.7844655895e+01  5.6146170344e+01  5.0000000000e-01 0. 9.
       -4     1     3     0     0   102 -8.0802598434e+01  5.3279985281e+00 -2.7734455937e+01  8.5608980418e+01  1.5000000000e+00 0. 9.
       -3     1     4     0     0   103 -1.2751680524e+01  7.7146216802e+00 -1.2696689579e+01  1.9585113483e+01  5.0000000000e-01 0. 9.
        4     1     4     0   103     0  9.7413323641e+01  1.6080207964e+01 -2.5252916533e+02  2.7114785275e+02  1.5000000000e+00 0. 9.
#pdf   -2    2  1.146039e-02  9.666164e-02  1.190836e+02  4.681547e-01  5.881702e-01
</event>
<event>
     8  9999  1.000000e+00  8.622872e+01  7.812558e-03  1.311635e-01
       -1    -1     0     0     0   101  0.0000000000e+00  0.0000000000e+00  8.5201187104e+01  8.5201187104e+01  0.0000000000e+00 0. 9.
        2    -1     0     0   101     0  0.0000000000e+00  0.0000000000e+00 -1.4082966815e+02  1.4082966815e+02  0.0000000000e+00 0. 9.
       23     2     1     2     0     0 -9.1936166160e+00 -7.0892304372e+00  4.0705290419e+01  9.9753243045e+01  9.0327233187e+01  1.133968e-13 9.
       24     2     1     2     0     0  9.1936166160e+00  7.0892304372e+00 -9.6333771464e+01  1.2627761221e+02  8.0814974143e+01  7.479459e-14 9.
        4     1     3     0   102     0  2.2563417689e+01 -3.6104483660e+01  3.7219178658e+01  5.6569946244e+01  1.5000000000e+00 0. 9.
       -4     1     3     0     0   102 -3.1757034305e+01  2.9015253222e+01  3.4861117610e+00  4.3183296801e+01  1.5000000000e+00 0. 9.
      -13     1     4     0     0     0  3.4937531780e+01 -1.3274057078e+01 -1.8284945836e+01  4.1607476809e+01  1.0566000000e-01  2.617750e+05 9.
       14     1     4     0     0     0 -2.5743915164e+01  2.0363287515e+01 -7.8048825629e+01  8.4670135398e+01  0.0000000000e+00 0. 9.
#pdf   -1    2  2.130030e-02  3.520742e-02  8.164459e+01  3.423530e-01  6.307964e-01
</event>
<event>
     8  9999  1.000000e+00  9.025982e+01  7.816603e-03  1.302113e-01
        2    -1     0     0   101     0  0.0000000000e+00  0.0000000000e+00  4.9459105459e+02  4.9459105459e+02  0.0000000000e+00 0. 9.
       -2    -1     0     0     0   101  0.0000000000e+00  0.0000000000e+00 -1.9965201853e+01  1.9965201853e+01  0.0000000000e+00 0. 9.
      -24     2     1     2     0     0 -2.3522564724e+01  3.5049788162e+01  1.2774518662e+02  1.5589282482e+02  7.8752405819e+01  1.385307e-15 9.
       24     2     1     2     0     0  2.3522564724e+01 -3.5049788162e+01  3.4688066611e+02  3.5866343163e+02  8.0817460744e+01  4.626905e-13 9.
        1     1     3     0   102     0 -1.5290183679e+01  5.0606518595e+01  1.2778470551e+02  1.3828900645e+02  3.3000000000e-01 0. 9.
       -2     1     3     0     0   102 -8.2323810449e+00 -1.5556730432e+01 -3.9518889606e-02  1.7603818369e+01  3.3000000000e-01 0. 9.
      -11     1     4     0     0     0 -2.4585943423e+01 -1.1318600492e+01  4.8882639864e+01  5.5875681754e+01  5.1100000000e-04 0. 9.
       12     1     4     0     0     0  4.8108508147e+01 -2.3731187670e+01  2.9799802625e+02  3.0278774987e+02  0.0000000000e+00 0. 9.
#pdf    2   -2  1.236478e-01  4.991300e-03  8.935178e+01  5.676367e-01  7.113181e-01
</event>
<event>
     8  9999  1.000000e+00  9.800208e+01  7.823901e-03  1.285307e-01
       -1    -1     0     0     0   101  0.0000000000e+00  0.0000000000e+00  4.2024669388e+01  4.2024669388e+01  0.0000000000e+00 0. 9.
        1    -1     0     0   101     0  0.0000000000e+00  0.0000000000e+00 -3.5925773216e+02  3.5925773216e+02  0.0000000000e+00 0. 9.
       23     2     1     2     0     0  2.9952677243e+01  1.5737765121e+01 -2.8139195922e+02  2.9855237911e+02  9.3846940439e+01  2.804691e-16 9.
       23     2     1     2     0     0 -2.9952677243e+01 -1.5737765121e+01 -3.5841103546e+01  1.0273002244e+02  9.0133416010e+01  1.679563e-13 9.
       16     1     3     0     0     0  4.7927651130e+01 -1.5608200382e+01 -2.3165463918e+02  2.3707498290e+02  0.0000000000e+00 0. 9.
      -16     1     3     0     0     0 -1.7974973887e+01  3.1345965503e+01 -4.9737320037e+01  6.1477396204e+01  0.0000000000e+00 0. 9.
       15     1     4     0     0     0 -4.1700504131e+01 -3.5202165161e+01  6.1499244011e+00  5.4946365997e+01  1.7768200000e+00  1.494002e-02 9.
      -15     1     4     0     0     0  1.1747826888e+01  1.9464400040e+01 -4.1991027947e+01  4.7783656441e+01  1.7768200000e+00  3.035579e-02 9.
#pdf   -1    1  1.050617e-02  8.981443e-02  9.627499e+01  5.094994e-01  3.719836e-01
</event>
<event>
     8  9999  1.000000e+00  9.250814e+01  7.818784e-03  1.297043e-01
        3    -1     0     0   101     0  0.0000000000e+00  0.0000000000e+00  3.9501112202e+01  3.9501112202e+01  0.0000000000e+00 0. 9.
       -3    -1     0     0     0   101  0.0000000000e+00  0.0000000000e+00 -5.6044316036e+02  5.6044316036e+02  0.0000000000e+00 0. 9.
      -24     2     1     2     0     0 -4.3483347690e+01  1.4905015314e+01 -2.6223898316e+01  9.6767431688e+01  8.1014085101e+01  8.610111e-14 9.
       24     2     1     2     0     0  4.3483347690e+01 -1.4905015314e+01 -4.9471814984e+02  5.0317684087e+02  7.9548252031e+01  1.792066e-13 9.
       13     1     3     0     0     0 -5.0073784619e+01  4.1589577470e+01 -1.3496487047e+01  6.6477388538e+01  1.0566000000e-01  9.496803e+04 9.
      -14     1     3     0     0     0  6.5904369291e+00 -2.6684562156e+01 -1.2727411269e+01  3.0290043150e+01  0.0000000000e+00 0. 9.
      -13     1     4     0     0     0  4.0914929237e+01 -2.8330620710e+01 -4.8181925318e+02  4.8438255481e+02  1.0566000000e-01  4.531510e+05 9.
       14     1     4     0     0     0  2.5684184527e+00  1.3425605396e+01 -1.2898896661e+01  1.8794286064e+01  0.0000000000e+00 0. 9.
#pdf    3   -3  9.875278e-03  1.401108e-01  9.187429e+01  3.379849e-01  2.833563e-02
</event>
<event>
     8  9999  1.000000e+00  1.050172e+02  7.830042e-03  1.271521e-01
       -1    -1     0     0     0   101  0.0000000000e+00  0.0000000000e+00  7.9377699042e+02  7.9377699042e+02  0.0000000000e+00 0. 9.
        2    -1     0     0   101     0  0.0000000000e+00  0.0000000000e+00 -2.2200002413e+01  2.2200002413e+01  0.0000000000e+00 0. 9.
       23     2     1     2     0     0  2.8559851834e+01  5.2127993585e+01  1.4551945938e+02  1.8178970352e+02  9.1315882503e+01  1.672989e-14 9.
       24     2     1     2     0     0 -2.8559851834e+01 -5.2127993585e+01  6.2605752863e+02  6.3418728931e+02  8.1929823126e+01  7.282202e-15 9.
        5     1     3     0   102     0  2.4219932137e+01  4.9395006466e+01  2.4242185106e+01  6.0309164438e+01  4.8000000000e+00 0. 9.
       -5     1     3     0     0   102  4.3399196975e+00  2.7329871197e+00  1.2127727427e+02  1.2148053909e+02  4.8000000000e+00 0. 9.
       -1     1     4     0     0   103  1.3270821979e+01 -4.1560381451e+01  4.7755642618e+02  4.7954523155e+02  3.3000000000e-01 0. 9.
        2     1     4     0   103     0 -4.1830673813e+01 -1.0567612134e+01  1.4850110246e+02  1.5464205776e+02  3.3000000000e-01 0. 9.
#pdf   -1    2  1.984442e-01  5.550001e-03  1.012200e+02  3.413778e-02  8.671238e-01
</event>
<event>
     8  9999  1.000000e+00  8.544998e+01  7.811755e-03  1.313542e-01
       -1    -1     0     0     0   101  0.0000000000e+00  0.0000000000e+00  1.2821363287e+02  1.2821363287e+02  0.0000000000e+00 0. 9.
        1    -1     0     0   101     0  0.0000000000e+00  0.0000000000e+00 -1.1497843756e+03  1.1497843756e+03  0.0000000000e+00 0. 9.
      -24     2     1     2     0     0  2.4101099400e+01 -1.7486216365e+01 -1.1336649542e+03  1.1368572568e+03  7.9759408911e+01  1.165042e-13 9.
       24     2     1     2     0     0 -2.4101099400e+01  1.7486216365e+01  1.1209421149e+02  1.4114075161e+02  8.0429899669e+01  2.391392e-13 9.
        1     1     3     0   102     0  3.5043439122e+01  1.6142967199e+01 -8.6689427129e+02  8.6775251340e+02  3.3000000000e-01 0. 9.
       -2     1     3     0     0   102 -1.0942339723e+01 -3.3629183564e+01 -2.6677068290e+02  2.6910474344e+02  3.3000000000e-01 0. 9.
       -3     1     4     0     0   103 -2.0808001699e+01  5.8636827417e+00  1.2294595472e+02  1.2483314260e+02  5.0000000000e-01 0. 9.
        4     1     4     0   103     0 -3.2930977012e+00  1.1622533623e+01 -1.0851743233e+01  1.6307609006e+01  1.5000000000e+00 0. 9.
#pdf   -1    1  3.205341e-02  2.874461e-01  8.513633e+01  2.648230e-01  1.478889e-01
</event>
<event>
     8  9999  1.000000e+00  9.272021e+01  7.818987e-03  1.296573e-01
       -1    -1     0     0     0   101  0.0000000000e+00  0.0000000000e+00  1.2933097531e+02  1.2933097531e+02  0.0000000000e+00 0. 9.
        1    -1     0     0   101     0  0.0000000000e+00  0.0000000000e+00 -1.5368569118e+02  1.5368569118e+02  0.0000000000e+00 0. 9.
      -24     2     1     2     0     0 -3.5955394817e+01  2.8015981247e+01 -1.1878127077e+02  1.5073465522e+02  8.0834772075e+01  9.533248e-14 9.
       24     2     1     2     0     0  3.5955394817e+01 -2.8015981247e+01  9.4426554898e+01  1.3228201127e+02  8.0650298292e+01  4.593094e-14 9.
        3     1     3     0   102     0 -4.7431575599e+01 -1.1129033778e+01 -8.3993701991e+01  9.7102017131e+01  5.0000000000e-01 0. 9.
       -4     1     3     0     0   102  1.1476180783e+01  3.9145015025e+01 -3.4787568775e+01  5.3632638084e+01  1.5000000000e+00 0. 9.
       -3     1     4     0     0   103  3.8472129037e+01 -5.0753636503e+01  4.5566663795e+01  7.8310964624e+01  5.0000000000e-01 0. 9.
        4     1     4     0   103     0 -2.5167342203e+00  2.2737655256e+01  4.8859891103e+01  5.3971046648e+01  1.5000000000e+00 0. 9.
#pdf   -1    1  3.233274e-02  3.842142e-02  9.263993e+01  2.636241e-01  4.608376e-01
</event>
<event>
     8  9999  1.000000e+00  7.856511e+01  7.804329e-03  1.331468e-01
       -2    -1     0     0     0   101  0.0000000000e+00  0.0000000000e+00  3.1477431857e+01  3.1477431857e+01  0.0000000000e+00 0. 9.
        2    -1     0     0   101     0  0.0000000000e+00  0.0000000000e+00 -2.8164981311e+02  2.8164981311e+02  0.0000000000e+00 0. 9.
      -24     2     1     2     0     0  1.7224188203e+01 -2.0282350471e+01 -4.1792460709e+01  9.1310306105e+01  7.6700168376e+01  2.713453e-13 9.
       24     2     1     2     0     0 -1.7224188203e+01  2.0282350471e+01 -2.0837992054e+02  2.2181693886e+02  7.1221602622e+01  2.145641e-14 9.
        3     1     3     0   102     0 -5.0813187091e+00  1.8296683507e+01 -4.2676425251e+01  4.6713121277e+01  5.0000000000e-01 0. 9.
       -4     1     3     0     0   102  2.2305506912e+01 -3.8579033978e+01  8.8396454224e-01  4.4597184828e+01  1.5000000000e+00 0. 9.
      -13     1     4     0     0     0  1.2352985034e+01 -1.1740456234e+01 -1.2474398508e+01  2.1120045786e+01  1.0566000000e-01  1.575370e+05 9.
       14     1     4     0     0     0 -2.9577173237e+01  3.2022806705e+01 -1.9590552204e+02  2.0069689308e+02  0.0000000000e+00 0. 9.
#pdf   -2    2  7.869358e-03  7.041245e-02  7.603001e+01  5.581550e-01  6.113262e-01
</event>
<event>
     8  9999  1.000000e+00  1.227589e+02  7.843944e-03  1.241454e-01
       -1    -1     0     0     0   101  0.0000000000e+00  0.0000000000e+00  2.4539305828e+02  2.4539305828e+02  0.0000000000e+00 0. 9.
        1    -1     0     0   101     0  0.0000000000e+00  0.0000000000e+00 -8.8634933942e+01  8.8634933942e+01  0.0000000000e+00 0. 9.
       23     2     1     2     0     0 -7.0163561666e+01  4.3839393455e+01 -1.4642290087e+01  1.2257780241e+02  8.9253028966e+01  3.281858e-15 9.
       23     2     1     2     0     0  7.0163561666e+01 -4.3839393455e+01  1.7140041443e+02  2.1145018982e+02  9.2131769245e+01  2.438062e-14 9.
        4     1     3     0   102     0 -3.7832894771e+01 -1.3544099582e+01 -3.5326445266e+01  5.3525492014e+01  1.5000000000e+00 0. 9.
       -4     1     3     0     0   102 -3.2330666895e+01  5.7383493037e+01  2.0684155179e+01  6.9052310392e+01  1.5000000000e+00 0. 9.
        3     1     4     0   103     0 -1.4413199513e+01 -2.4890903132e+01  1.4532580257e+01  3.2229540298e+01  5.0000000000e-01 0. 9.
       -3     1     4     0     0   103  8.4576761179e+01 -1.8948490323e+01  1.5686783417e+02  1.7922064952e+02  5.0000000000e-01 0. 9.
#pdf   -1    1  6.134826e-02  2.215873e-02  1.217001e+02  1.599137e-01  5.277813e-01
</event>
<event>
     8  9999  1.000000e+00  1.139402e+02  7.837299e-03  1.255634e-01
        3    -1     0     0   101     0  0.0000000000e+00  0.0000000000e+00  8.8417555305e+01  8.8417555305e+01  0.0000000000e+00 0. 9.
       -4    -1     0     0     0   101  0.0000000000e+00  0.0000000000e+00 -1.7128640537e+02  1.7128640537e+02  0.0000000000e+00 0. 9.
       23     2     1     2     0     0 -1.4110326054e+01 -7.3625905566e+01  6.1231235912e+00  1.1830082638e+02  9.1311103421e+01  1.182728e-14 9.
      -24     2     1     2     0     0  1.4110326054e+01  7.3625905566e+01 -8.8991973659e+01  1.4140313430e+02  8.0345502311e+01  4.497494e-14 9.
        4     1     3     0   102     0  6.2118366721e+00 -8.3338045295e+01 -1.7748456241e+01  8.5446324715e+01  1.5000000000e+00 0. 9.
       -4     1     3     0     0   102 -2.0322162726e+01  9.7121397283e+00  2.3871579833e+01  3.2854501665e+01  1.5000000000e+00 0. 9.
        3     1     4     0   103     0 -2.8017051881e+01  5.2265940486e+01 -3.2064928629e+01  6.7417307711e+01  5.0000000000e-01 0. 9.
       -4     1     4     0     0   103  4.2127377935e+01  2.1359965080e+01 -5.6927045030e+01  7.3985826587e+01  1.5000000000e+00 0. 9.
#pdf    3   -4  2.210439e-02  4.282160e-02  1.098876e+02  1.960848e-01  9.189931e-02
</event>
<event>
     8  9999  1.000000e+00  1.774052e+02  7.876932e-03  1.176407e-01
        2    -1     0     0   101     0  0.0000000000e+00  0.0000000000e+00  8.0156560335e+02  8.0156560335e+02  0.0000000000e+00 0. 9.
       -1    -1     0     0     0   101  0.0000000000e+00  0.0000000000e+00 -2.6357349429e+02  2.6357349429e+02  0.0000000000e+00 0. 9.
       23     2     1     2     0     0  7.0625487362e+01 -1.3784949902e+02 -2.2142713711e+02  2.8610658307e+02  9.4002957284e+01  3.289909e-15 9.
       24     2     1     2     0     0 -7.0625487362e+01  1.3784949902e+02  7.5941924617e+02  7.7903251457e+02  7.8636018791e+01  1.954690e-14 9.
        5     1     3     0   102     0 -6.9082418773e+00 -5.7104364215e+01 -1.2728480989e+02  1.3976084947e+02  4.8000000000e+00 0. 9.
       -5     1     3     0     0   102  7.7533729239e+01 -8.0745134809e+01 -9.4142327228e+01  1.4634573359e+02  4.8000000000e+00 0. 9.
      -13     1     4     0     0     0 -1.1494558060e+01  1.0574305138e+02  4.5550089228e+02  4.6775505535e+02  1.0566000000e-01  1.184631e+06 9.
       14     1     4     0     0     0 -5.9130929302e+01  3.2106447645e+01  3.0391835389e+02  3.1127745921e+02  0.0000000000e+00 0. 9.
#pdf    2   -1  2.003914e-01  6.589337e-02  1.737068e+02  4.520377e-01  1.486202e-01
</event>
<event>
     8  9999  1.000000e+00  8.387801e+01  7.810112e-03  1.317462e-01
        2    -1     0     0   101     0  0.0000000000e+00  0.0000000000e+00  1.3485066410e+03  1.3485066410e+03  0.0000000000e+00 0. 9.
       -2    -1     0     0     0   101  0.0000000000e+00  0.0000000000e+00 -7.4711968521e+00  7.4711968521e+00  0.0000000000e+00 0. 9.
      -24     2     1     2     0     0 -3.2042925841e+00  3.0817475743e+00  3.2076561588e+02  3.3256657436e+02  8.7693679286e+01  3.489087e-14 9.
       24     2     1     2     0     0  3.2042925841e+00 -3.0817475743e+00  1.0202698283e+03  1.0234112635e+03  8.0002044504e+01  2.451446e-13 9.
       11     1     3     0     0     0 -3.4201710032e+01 -1.3299414229e+01  2.5864508272e+02  2.6123535405e+02  5.1100000000e-04 0. 9.
      -12     1     3     0     0     0  3.0997417448e+01  1.6381161803e+01  6.2120533164e+01  7.1331220310e+01  0.0000000000e+00 0. 9.
       -1     1     4     0     0   102 -1.9843707137e+01 -3.5280675321e+01  5.3319363151e+02  5.3472802091e+02  3.3000000000e-01 0. 9.
        2     1     4     0   102     0  2.3047999721e+01  3.2198927747e+01  4.8707619677e+02  4.8868324260e+02  3.3000000000e-01 0. 9.
#pdf    2   -2  3.371267e-01  1.867799e-03  8.012548e+01  2.857425e-01  1.096573e+00
</event>
<event>
     8  9999  1.000000e+00  8.321635e+01  7.809412e-03  1.319142e-01
        4    -1     0     0   101     0  0.0000000000e+00  0.0000000000e+00  2.0932425455e+02  2.0932425455e+02  0.0000000000e+00 0. 9.
       -3    -1     0     0     0   101  0.0000000000e+00  0.0000000000e+00 -3.4807300591e+02  3.4807300591e+02  0.0000000000e+00 0. 9.
       23     2     1     2     0     0 -1.4768594256e+01  1.0233951559e+01  1.9569556322e+02  2.1291281659e+02  8.1928437431e+01  4.099001e-14 9.
       24     2     1     2     0     0  1.4768594256e+01 -1.0233951559e+01 -3.3444431459e+02  3.4448444387e+02  8.0583418689e+01  6.021389e-14 9.
        4     1     3     0   102     0 -4.8715136180e+01  1.4445235852e+00  1.1595341995e+02  1.2578830129e+02  1.5000000000e+00 0. 9.
       -4     1     3     0     0   102  3.3946541925e+01  8.7894279736e+00  7.9742143271e+01  8.7124515300e+01  1.5000000000e+00 0. 9.
       -3     1     4     0     0   103 -1.7850401946e+01 -3.5035344986e+01 -2.0369996981e+02  2.0746093596e+02  5.0000000000e-01 0. 9.
        4     1     4     0   103     0  3.2618996202e+01  2.4801393428e+01 -1.3074434478e+02  1.3702350791e+02  1.5000000000e+00 0. 9.
#pdf    4   -3  5.233106e-02  8.701825e-02  8.256229e+01  7.341973e-02  5.239942e-02
</event>
<event>
     8  9999  1.000000e+00  9.065983e+01  7.816995e-03  1.301199e-01
       -2    -1     0     0     0   101  0.0000000000e+00  0.0000000000e+00  1.9115595338e+01  1.9115595338e+01  0.0000000000e+00 0. 9.
        2    -1     0     0   101     0  0.0000000000e+00  0.0000000000e+00 -4.3567156090e+02  4.3567156090e+02  0.0000000000e+00 0. 9.
       23     2     1     2     0     0  5.1837699998e+00  1.8529501448e+01 -2.3449586068e+02  2.5144517618e+02  8.8691341471e+01  1.966269e-13 9.
       23     2     1     2     0     0 -5.1837699998e+00 -1.8529501448e+01 -1.8206010488e+02  2.0334198006e+02  8.8497825792e+01  1.154358e-13 9.
       14     1     3     0     0     0 -1.0115393197e+01 -2.9246957260e+01 -1.5016784554e+02  1.5332347349e+02  0.0000000000e+00 0. 9.
      -14     1     3     0     0     0  1.5299163197e+01  4.7776458708e+01 -8.4328015137e+01  9.8121702687e+01  0.0000000000e+00 0. 9.
        4     1     4     0   102     0 -2.3947225896e+01 -2.8479113580e+01 -1.7776272851e+02  1.8162149428e+02  1.5000000000e+00 0. 9.
       -4     1     4     0     0   102  1.8763455896e+01  9.9496121317e+00 -4.2973763728e+00  2.1720485778e+01  1.5000000000e+00 0. 9.
#pdf   -2    2  4.778899e-03  1.089179e-01  9.056533e+01  7.273943e-01  5.816334e-01
</event>
<event>
     8  9999  1.000000e+00  2.387240e+02  7.903732e-03  1.132349e-01
       -2    -1     0     0     0   101  0.0000000000e+00  0.0000000000e+00  7.6968559414e+01  7.6968559414e+01  0.0000000000e+00 0. 9.
        2    -1     0     0   101     0  0.0000000000e+00  0.0000000000e+00 -8.2007223452e+02  8.2007223452e+02  0.0000000000e+00 0. 9.
      -24     2     1     2     0     0  2.0108719899e+02  1.0176405632e+02 -2.3098997095e+02  3.3178301683e+02  7.7017003439e+01  1.714838e-13 9.
       24     2     1     2     0     0 -2.0108719899e+02 -1.0176405632e+02 -5.1211370415e+02  5.6525777710e+02  8.0398531313e+01  8.579526e-14 9.
       15     1     3     0     0     0 -5.2219218986e+00  7.2039108689e+00 -1.8166999852e+00  9.2532312340e+00  1.7768200000e+00  9.697193e-02 9.
      -16     1     3     0     0     0  2.0630912089e+02  9.4560145455e+01 -2.2917327097e+02  3.2252978560e+02  0.0000000000e+00 0. 9.
       -1     1     4     0     0   102 -9.8007369177e+01 -1.6159865247e+01 -1.5786666847e+02  1.8651696859e+02  3.3000000000e-01 0. 9.
        2     1     4     0   102     0 -1.0307982981e+02 -8.5604191077e+01 -3.5424703568e+02  3.7874080851e+02  3.3000000000e-01 0. 9.
#pdf   -2    2  1.924214e-02  2.050181e-01  2.381672e+02  3.458168e-01  4.361002e-01
</event>
<event>
     8  9999  1.000000e+00  1.321180e+02  7.850504e-03  1.227789e-01
        2    -1     0     0   101     0  0.0000000000e+00  0.0000000000e+00  3.7550285149e+02  3.7550285149e+02  0.0000000000e+00 0. 9.
       -2    -1     0     0     0   101  0.0000000000e+00  0.0000000000e+00 -5.3147036576e+01  5.3147036576e+01  0.0000000000e+00 0. 9.
       23     2     1     2     0     0  2.1623989423e+01 -2.2636419733e+01  1.7103861660e+02  2.4933470685e+02  1.7869970132e+02  9.132956e-14 9.
       23     2     1     2     0     0 -2.1623989423e+01  2.2636419733e+01  1.5131719831e+02  1.7931518122e+02  9.0978213289e+01  7.936650e-15 9.
        5     1     3     0   102     0 -1.7995228067e+01  4.1763169112e+01  1.6734668450e+02  1.7348182424e+02  4.8000000000e+00 0. 9.
       -5     1     3     0     0   102  3.9619217490e+01 -6.4399588845e+01  3.6919321026e+00  7.5852882612e+01  4.8000000000e+00 0. 9.
       13     1     4     0     0     0 -4.6516883872e+01 -3.2106144176e+00  1.2872734619e+02  1.3691190362e+02  1.0566000000e-01  6.909986e+05 9.
      -13     1     4     0     0     0  2.4892894449e+01  2.5847034151e+01  2.2589852118e+01  4.2403277600e+01  1.0566000000e-01  1.750548e+06 9.
#pdf    2   -2  9.387571e-02  1.328676e-02  9.621351e+01  5.935388e-01  4.237883e-01
</event>
<event>
     8  9999  1.000000e+00  9.648998e+01  7.822521e-03  1.288449e-01
       -2    -1     0     0     0   101  0.0000000000e+00  0.0000000000e+00  9.9697998379e+02  9.9697998379e+02  0.0000000000e+00 0. 9.
        2    -1     0     0   101     0  0.0000000000e+00  0.0000000000e+00 -1.0350353409e+01  1.0350353409e+01  0.0000000000e+00 0. 9.
       23     2     1     2     0     0  1.7176493135e+01  2.2808753774e+01  6.5189835237e+02  6.5903593789e+02  9.2420963185e+01  4.587889e-14 9.
       23     2     1     2     0     0 -1.7176493135e+01 -2.2808753774e+01  3.3473127801e+02  3.4829439931e+02  9.1916750106e+01  5.245088e-14 9.
        1     1     3     0   102     0 -3.3840247828e+00 -1.1099433966e+01  8.4294217773e+00  1.4346187981e+01  3.3000000000e-01 0. 9.
       -1     1     3     0     0   102  2.0560517918e+01  3.3908187740e+01  6.4346893059e+02  6.4468974991e+02  3.3000000000e-01 0. 9.
        3     1     4     0   103     0 -1.0231126714e+01  3.4341735653e+01  1.7158718353e+02  1.7528959557e+02  5.0000000000e-01 0. 9.
       -3     1     4     0     0   103 -6.9453664214e+00 -5.7150489427e+01  1.6314409448e+02  1.7300480374e+02  5.0000000000e-01 0. 9.
#pdf   -2    2  2.492450e-01  2.587588e-03  9.624947e+01  1.608037e-02  1.096533e+00
</event>
<event>
     8  9999  1.000000e+00  8.999118e+01  7.816339e-03  1.302730e-01
        2    -1     0     0   101     0  0.0000000000e+00  0.0000000000e+00  7.4835107400e+02  7.4835107400e+02  0.0000000000e+00 0. 9.
       -2    -1     0     0     0   101  0.0000000000e+00  0.0000000000e+00 -1.0932222768e+01  1.0932222768e+01  0.0000000000e+00 0. 9.
      -24     2     1     2     0     0 -2.4542241027e+01 -3.1323944145e+01  4.0384566097e+02  4.1359547867e+02  7.9914898577e+01  5.006204e-14 9.
       24     2     1     2     0     0  2.4542241027e+01  3.1323944145e+01  3.3357319026e+02  3.4568781810e+02  8.1519833495e+01  7.602066e-14 9.
       13     1     3     0     0     0  1.5250469970e+01  1.5949755951e+01  1.8103795512e+02  1.8237796991e+02  1.0566000000e-01  2.893678e+06 9.
      -14     1     3     0     0     0 -3.9792710997e+01 -4.7273700096e+01  2.2280770585e+02  2.3121750876e+02  0.0000000000e+00 0. 9.
       -3     1     4     0     0   102 -7.4946779998e-01 -2.3683010247e+01  4.5336431539e+01  5.1157489198e+01  5.0000000000e-01 0. 9.
        4     1     4     0   102     0  2.5291708827e+01  5.5006954392e+01  2.8823675872e+02  2.9453032890e+02  1.5000000000e+00 0. 9.
#pdf    2   -2  1.870878e-01  2.733056e-03  8.927431e+01  4.911202e-01  9.413505e-01
</event>
<event>
     8  9999  1.000000e+00  1.015603e+02  7.827068e-03  1.278158e-01
       -1    -1     0     0     0   101  0.0000000000e+00  0.0000000000e+00  6.0249648930e+02  6.0249648930e+02  0.0000000000e+00 0. 9.
        2    -1     0     0   101     0  0.0000000000e+00  0.0000000000e+00 -7.3658687280e+01  7.3658687280e+01  0.0000000000e+00 0. 9.
       23     2     1     2     0     0  4.5396853775e+01 -2.5565023163e+01 -2.7758236361e+01  1.1140929649e+02  9.4483156792e+01  2.199577e-14 9.
       24     2     1     2     0     0 -4.5396853775e+01  2.5565023163e+01  5.5659603838e+02  5.6474588008e+02  8.0151820887e+01  1.311928e-13 9.
        3     1     3     0   102     0 -9.8314967948e+00 -4.6388739850e+01 -3.3629533166e+00  4.7540855789e+01  5.0000000000e-01 0. 9.
       -3     1     3     0     0   102  5.5228350570e+01  2.0823716687e+01 -2.4395283044e+01  6.3868440705e+01  5.0000000000e-01 0. 9.
       -1     1     4     0     0   103 -7.8604256314e+00  1.3254796610e+01  4.6167550498e+02  4.6193274048e+02  3.3000000000e-01 0. 9.
        2     1     4     0   103     0 -3.7536428144e+01  1.2310226554e+01  9.4920533396e+01  1.0281313961e+02  3.3000000000e-01 0. 9.
#pdf   -1    2  1.506241e-01  1.841467e-02  9.559686e+01  5.582128e-02  6.706826e-01
</event>
<event>
     8  9999  1.000000e+00  1.027554e+02  7.828107e-03  1.275830e-01
       -1    -1     0     0     0   101  0.0000000000e+00  0.0000000000e+00  2.6459703720e+02  2.6459703720e+02  0.0000000000e+00 0. 9.
        1    -1     0     0   101     0  0.0000000000e+00  0.0000000000e+00 -5.3152663290e+01  5.3152663290e+01  0.0000000000e+00 0. 9.
      -24     2     1     2     0     0  1.4013958247e+01 -6.0077640983e+01  2.6867525462e+01  1.0678462162e+02  8.2917896243e+01  5.409909e-14 9.
       24     2     1     2     0     0 -1.4013958247e+01  6.0077640983e+01  1.8457684845e+02  2.1096507888e+02  8.1436708859e+01  1.547640e-14 9.
       15     1     3     0     0     0  4.2002267925e+00 -6.6492459476e+01 -1.0635269075e+01  6.7491889216e+01  1.7768200000e+00  4.050299e-02 9.
      -16     1     3     0     0     0  9.8137314550e+00  6.4148184930e+00  3.7502794537e+01  3.9292732400e+01  0.0000000000e+00 0. 9.
       -1     1     4     0     0   102  1.4375489083e+01  7.0234316521e+01  1.3731770464e+02  1.5490569651e+02  3.3000000000e-01 0. 9.
        2     1     4     0   102     0 -2.8389447331e+01 -1.0156675538e+01  4.7259143814e+01  5.6059382370e+01  3.3000000000e-01 0. 9.
#pdf   -1    1  6.614926e-02  1.328817e-02  1.021648e+02  1.497146e-01  6.036967e-01
</event>
<event>
     8  9999  1.000000e+00  8.842677e+01  7.814786e-03  1.306372e-01
        1    -1     0     0   101     0  0.0000000000e+00  0.0000000000e+00  1.0812690038e+02  1.0812690038e+02  0.0000000000e+00 0. 9.
       -1    -1     0     0     0   101  0.0000000000e+00  0.0000000000e+00 -1.7566571134e+02  1.7566571134e+02  0.0000000000e+00 0. 9.
      -24     2     1     2     0     0 -6.6791927064e+00  3.5049618023e+01  7.5050119304e+01  1.1607340224e+02  8.1039662889e+01  5.043661e-14 9.
       24     2     1     2     0     0  6.6791927064e+00 -3.5049618023e+01 -1.4258893027e+02  1.6771920948e+02  8.0777737363e+01  2.496825e-14 9.
        1     1     3     0   102     0  1.0026497759e+00  5.2742214317e+01  8.0302616646e+01  9.6079995929e+01  3.3000000000e-01 0. 9.
       -2     1     3     0     0   102 -7.6818424823e+00 -1.7692596294e+01 -5.2524973417e+00  1.9993406310e+01  3.3000000000e-01 0. 9.
      -11     1     4     0     0     0 -9.5020400479e+00 -5.8645606012e+01 -8.9766270297e+01  1.0764561836e+02  5.1100000000e-04 0. 9.
       12     1     4     0     0     0  1.6181232754e+01  2.3595987990e+01 -5.2822659974e+01  6.0073591114e+01  0.0000000000e+00 0. 9.
#pdf    1   -1  2.703173e-02  4.391643e-02  8.830702e+01  4.985024e-01  2.114937e-01
</event>
<event>
     8  9999  1.000000e+00  1.123569e+02  7.836053e-03  1.258332e-01
       -2    -1     0     0     0   101  0.0000000000e+00  0.0000000000e+00  2.8808645436e+01  2.8808645436e+01  0.0000000000e+00 0. 9.
        2    -1     0     0   101     0  0.0000000000e+00  0.0000000000e+00 -4.4599987241e+02  4.4599987241e+02  0.0000000000e+00 0. 9.
      -24     2     1     2     0     0  2.9786065422e+01 -7.3134886199e+01 -1.7705906313e+02  2.0965561608e+02  7.9810051038e+01  6.664287e-15 9.
       24     2     1     2     0     0 -2.9786065422e+01  7.3134886199e+01 -2.4013216384e+02  2.6515290176e+02  8.0041763641e+01  4.652840e-14 9.
        1     1     3     0   102     0 -2.3305601069e+01 -1.9471690502e+01 -8.6967373606e+01  9.2118026163e+01  3.3000000000e-01 0. 9.
       -2     1     3     0     0   102  5.3091666492e+01 -5.3663195697e+01 -9.0091689520e+01  1.1753758992e+02  3.3000000000e-01 0. 9.
       -1     1     4     0     0   103  1.8495502245e+01  5.3416966273e+01 -1.5853804666e+02  1.6831481524e+02  3.3000000000e-01 0. 9.
        2     1     4     0   103     0 -4.8281567667e+01  1.9717919926e+01 -8.1594117181e+01  9.6838086521e+01  3.3000000000e-01 0. 9.
#pdf   -2    2  7.202161e-03  1.115000e-01  1.122745e+02  6.030533e-01  5.752903e-01
</event>
<event>
     8  9999  1.000000e+00  8.440434e+01  7.810666e-03  1.316139e-01
        1    -1     0     0   101     0  0.0000000000e+00  0.0000000000e+00  1.5614437176e+02  1.5614437176e+02  0.0000000000e+00 0. 9.
       -1    -1     0     0     0   101  0.0000000000e+00  0.0000000000e+00 -6.9192682513e+01  6.9192682513e+01  0.0000000000e+00 0. 9.
      -24     2     1     2     0     0 -1.7136081579e+01 -1.7198520082e+00  1.0977594265e+02  1.3953062615e+02  8.4388594409e+01  1.065466e-13 9.
       24     2     1     2     0     0  1.7136081579e+01  1.7198520082e+00 -2.2824253404e+01  8.5806428122e+01  8.0902369439e+01  4.800725e-14 9.
        3     1     3     0   102     0 -3.1638269311e+01  5.9841290904e+00  1.1712927190e+02  1.2147553754e+02  5.0000000000e-01 0. 9.
       -4     1     3     0     0   102  1.4502187732e+01 -7.7039810986e+00 -7.3533292434e+00  1.8055088611e+01  1.5000000000e+00 0. 9.
       -3     1     4     0     0   103  2.2078879341e+00 -3.7372606931e+01 -2.2985008419e+01  4.3933439769e+01  5.0000000000e-01 0. 9.
        4     1     4     0   103     0  1.4928193645e+01  3.9092458939e+01  1.6075501430e-01  4.1872988353e+01  1.5000000000e+00 0. 9.
#pdf    1   -1  3.903609e-02  1.729817e-02  8.271515e+01  4.588101e-01  3.863289e-01
</event>
<event>
     8  9999  1.000000e+00  9.635624e+01  7.822398e-03  1.288730e-01
       -1    -1     0     0     0   101  0.0000000000e+00  0.0000000000e+00  1.3130781300e+02  1.3130781300e+02  0.0000000000e+00 0. 9.
        1    -1     0     0   101     0  0.0000000000e+00  0.0000000000e+00 -7.7926739894e+01  7.7926739894e+01  0.0000000000e+00 0. 9.
      -24     2     1     2     0     0  4.8992608016e+01  1.8652086537e+01 -4.8958953878e+00  9.7431600172e+01  8.1980308294e+01  1.764983e-15 9.
       24     2     1     2     0     0 -4.8992608016e+01 -1.8652086537e+01  5.8276968492e+01  1.1180295272e+02  7.9721510322e+01  1.679678e-13 9.
        3     1     3     0   102     0 -6.2532615557e+00  1.7565366243e+01  2.7599230543e+01  3.3310852554e+01  5.0000000000e-01 0. 9.
       -4     1     3     0     0   102  5.5245869572e+01  1.0867202941e+00 -3.2495125931e+01  6.4120747618e+01  1.5000000000e+00 0. 9.
      -11     1     4     0     0     0 -1.3178888596e+00  1.0746917142e+01 -1.5664551815e+01  1.9042353923e+01  5.1100000000e-04 0. 9.
       12     1     4     0     0     0 -4.7674719157e+01 -2.9399003679e+01  7.3941520307e+01  9.2760598798e+01  0.0000000000e+00 0. 9.
#pdf   -1    1  3.282695e-02  1.948168e-02  9.541329e+01  2.610233e-01  5.415500e-01
</event>
<event>
     8  9999  1.000000e+00  1.181635e+02  7.840542e-03  1.248671e-01
       -2    -1     0     0     0   101  0.0000000000e+00  0.0000000000e+00  2.0705193124e+01  2.0705193124e+01  0.0000000000e+00 0. 9.
        1    -1     0     0   101     0  0.0000000000e+00  0.0000000000e+00 -8.2317370315e+02  8.2317370315e+02  0.0000000000e+00 0. 9.
       23     2     1     2     0     0  6.7930487555e+01  4.2813816358e+01 -2.3256524127e+02  2.6258101500e+02  9.1731259566e+01  6.219372e-14 9.
      -24     2     1     2     0     0 -6.7930487555e+01 -4.2813816358e+01 -5.6990326875e+02  5.8129788127e+02  8.1669559949e+01  2.731133e-13 9.
        4     1     3     0   102     0  4.4560044231e+01 -8.7181949135e+00 -1.7891197142e+02  1.8458967463e+02  1.5000000000e+00 0. 9.
       -4     1     3     0     0   102  2.3370443324e+01  5.1532011272e+01 -5.3653269858e+01  7.7991340374e+01  1.5000000000e+00 0. 9.
        1     1     4     0   103     0 -1.0910362450e+01  2.3444241183e+01 -9.7296901016e+01  1.0067504309e+02  3.3000000000e-01 0. 9.
       -2     1     4     0     0   103 -5.7020125105e+01 -6.6258057541e+01 -4.7260636774e+02  4.8062283818e+02  3.3000000000e-01 0. 9.
#pdf   -2    1  5.176298e-03  2.057934e-01  1.145316e+02  7.151397e-01  2.237494e-01
</event>
<event>
     8  9999  1.000000e+00  1.137643e+02  7.837161e-03  1.255931e-01
       -1    -1     0     0     0   101  0.0000000000e+00  0.0000000000e+00  1.2744822406e+02  1.2744822406e+02  0.0000000000e+00 0. 9.
        2    -1     0     0   101     0  0.0000000000e+00  0.0000000000e+00 -1.0248918143e+02  1.0248918143e+02  0.0000000000e+00 0. 9.
       23     2     1     2     0     0 -2.0087086691e+01 -6.9442505610e+01  2.3297167756e+01  1.1955639377e+02  9.2332121325e+01  3.223628e-14 9.
       24     2     1     2     0     0  2.0087086691e+01  6.9442505610e+01  1.6618748674e+00  1.1038101172e+02  8.3399360211e+01  1.023839e-13 9.
        5     1     3     0   102     0  2.0265085655e+01 -7.1469928112e+01  4.0662655172e+00  7.4553328807e+01  4.8000000000e+00 0. 9.
       -5     1     3     0     0   102 -4.0352172345e+01  2.0274225020e+00  1.9230902239e+01  4.5003064961e+01  4.8000000000e+00 0. 9.
       -3     1     4     0     0   103 -3.1806833477e+01  3.8220801134e+01 -1.0762695049e+00  4.9738442389e+01  5.0000000000e-01 0. 9.
        4     1     4     0   103     0  5.1893920168e+01  3.1221704475e+01  2.7381443722e+00  6.0642569333e+01  1.5000000000e+00 0. 9.
#pdf   -1    2  3.186206e-02  2.562230e-02  1.103685e+02  2.669569e-01  6.496558e-01
</event>
<event>
     8  9999  1.000000e+00  8.066901e+01  7.806664e-03  1.325776e-01
        2    -1     0     0   101     0  0.0000000000e+00  0.0000000000e+00  3.0986042969e+02  3.0986042969e+02  0.0000000000e+00 0. 9.
       -2    -1     0     0     0   101  0.0000000000e+00  0.0000000000e+00 -3.4239725934e+01  3.4239725934e+01  0.0000000000e+00 0. 9.
      -24     2     1     2     0     0 -1.9990582650e+00 -2.5710591366e+00  3.1775442052e+01  8.7534185341e+01  8.1498149099e+01  3.390747e-14 9.
       24     2     1     2     0     0  1.9990582650e+00  2.5710591366e+00  2.4384526171e+02  2.5656597028e+02  7.9718121358e+01  9.786564e-14 9.
        3     1     3     0   102     0  2.9942931769e+01  1.2996287196e+01 -8.5692367882e+00  3.3751510529e+01  5.0000000000e-01 0. 9.
       -4     1     3     0     0   102 -3.1941990034e+01 -1.5567346333e+01  4.0344678840e+01  5.3782674812e+01  1.5000000000e+00 0. 9.
      -15     1     4     0     0     0  6.7973492933e+00 -2.6213848651e+01  2.8886032656e+01  3.9634956673e+01  1.7768200000e+00  9.594252e-02 9.
       16     1     4     0     0     0 -4.7982910283e+00  2.8784907788e+01  2.1495922905e+02  2.1693101361e+02  0.0000000000e+00 0. 9.
#pdf    2   -2  7.746511e-02  8.559931e-03  7.978462e+01  6.070617e-01  5.361233e-01
</event>
<event>
     8  9999  1.000000e+00  1.437791e+02  7.858070e-03  1.212426e-01
        5    -1     0     0   101     0  0.0000000000e+00  0.0000000000e+00  2.5258252209e+02  2.5258252209e+02  0.0000000000e+00 0. 9.
       -5    -1     0     0     0   101  0.0000000000e+00  0.0000000000e+00 -8.2057342714e+01  8.2057342714e+01  0.0000000000e+00 0. 9.
       23     2     1     2     0     0 -5.9682129616e+00 -1.0347679794e+02  7.8377751294e+01  1.5784558606e+02  8.9605188812e+01  1.778100e-14 9.
       23     2     1     2     0     0  5.9682129616e+00  1.0347679794e+02  9.2147428086e+01  1.7679427875e+02  1.0964488688e+02  9.309300e-14 9.
       12     1     3     0     0     0 -3.3289130827e+01 -5.2169960047e+00  1.0339410729e+01  3.5246087624e+01  0.0000000000e+00 0. 9.
      -12     1     3     0     0     0  2.7320917866e+01 -9.8259801935e+01  6.8038340565e+01  1.2259949843e+02  0.0000000000e+00 0. 9.
        3     1     4     0   102     0 -1.4849500155e+01  9.4766063833e+00  7.7413839838e+01  7.9394372104e+01  5.0000000000e-01 0. 9.
       -3     1     4     0     0   102  2.0817713117e+01  9.4000191556e+01  1.4733588248e+01  9.7399906646e+01  5.0000000000e-01 0. 9.
#pdf    5   -5  6.314563e-02  2.051434e-02  1.370115e+02  3.872190e-02  1.221511e-01
</event>
<event>
     8  9999  1.000000e+00  9.374935e+01  7.819966e-03  1.294313e-01
        1    -1     0     0   101     0  0.0000000000e+00  0.0000000000e+00  3.5610012559e+02  3.5610012559e+02  0.0000000000e+00 0. 9.
       -4    -1     0     0     0   101  0.0000000000e+00  0.0000000000e+00 -2.7111211696e+01  2.7111211696e+01  0.0000000000e+00 0. 9.
       23     2     1     2     0     0 -3.9978744584e+01  6.5040293335e+00  1.1871934603e+02  1.5541065665e+02  9.1747406843e+01  9.294990e-16 9.
      -24     2     1     2     0     0  3.9978744584e+01 -6.5040293335e+00  2.1026956786e+02  2.2780068064e+02  7.7712653496e+01  1.305226e-13 9.
        5     1     3     0   102     0 -6.4986169667e+01  6.2999486266e+00  1.1088355432e+02  1.2876759770e+02  4.8000000000e+00 0. 9.
       -5     1     3     0     0   102  2.5007425084e+01  2.0408070690e-01  7.8357917172e+00  2.6643058948e+01  4.8000000000e+00 0. 9.
       13     1     4     0     0     0  9.6712301380e+00 -2.1216534819e+00  1.9176656335e+02  1.9202203021e+02  1.0566000000e-01  4.787554e+05 9.
      -14     1     4     0     0     0  3.0307514446e+01 -4.3823758516e+00  1.8503004518e+01  3.5778650424e+01  0.0000000000e+00 0. 9.
#pdf    1   -4  8.902503e-02  6.777803e-03  8.763480e+01  3.741564e-01  3.700244e-01
</event>
<event>
     8  9999  1.000000e+00  8.189114e+01  7.807993e-03  1.322559e-01
       -2    -1     0     0     0   101  0.0000000000e+00  0.0000000000e+00  2.7080565258e+01  2.7080565258e+01  0.0000000000e+00 0. 9.
        2    -1     0     0   101     0  0.0000000000e+00  0.0000000000e+00 -2.5999404833e+02  2.5999404833e+02  0.0000000000e+00 0. 9.
      -24     2     1     2     0     0  1.3282058486e+01  1.4324392680e+01 -8.3884716623e+01  1.1655158043e+02  7.8524033988e+01  1.620624e-13 9.
       24     2     1     2     0     0 -1.3282058486e+01 -1.4324392680e+01 -1.4902876645e+02  1.7052303316e+02  8.0541481893e+01  2.288850e-14 9.
        1     1     3     0   102     0 -2.9391934690e+01  2.1705103046e+01 -2.9069467417e+01  4.6691971033e+01  3.3000000000e-01 0. 9.
       -2     1     3     0     0   102  4.2673993176e+01 -7.3807103668e+00 -5.4815249206e+01  6.9859609393e+01  3.3000000000e-01 0. 9.
       -1     1     4     0     0   103  1.5917339751e-01  3.0426994790e+01 -9.1389814697e+01  9.6322554360e+01  3.3000000000e-01 0. 9.
        2     1     4     0   103     0 -1.3441231883e+01 -4.4751387470e+01 -5.7638951749e+01  7.4200478797e+01  3.3000000000e-01 0. 9.
#pdf   -2    2  6.770141e-03  6.499851e-02  8.091740e+01  6.060999e-01  6.137840e-01
</event>
<event>
     8  9999  1.000000e+00  8.263421e+01  7.808791e-03  1.320634e-01
        4    -1     0     0   101     0  0.0000000000e+00  0.0000000000e+00  9.2608872344e+00  9.2608872344e+00  0.0000000000e+00 0. 9.
       -4    -1     0     0     0   101  0.0000000000e+00  0.0000000000e+00 -1.2085638001e+03  1.2085638001e+03  0.0000000000e+00 0. 9.
      -24     2     1     2     0     0  1.3148501321e+01  1.6284392128e+01 -9.7674023969e+02  9.8017097427e+02  7.9218548708e+01  4.532644e-13 9.
       24     2     1     2     0     0 -1.3148501321e+01 -1.6284392128e+01 -2.2256267321e+02  2.3765371310e+02  8.0666469669e+01  1.323469e-13 9.
        3     1     3     0   102     0  2.5090585891e+01  1.2913537599e+01 -1.1758001772e+02  1.2091983923e+02  5.0000000000e-01 0. 9.
       -4     1     3     0     0   102 -1.1942084570e+01  3.3708545289e+00 -8.5916022197e+02  8.5925113504e+02  1.5000000000e+00 0. 9.
      -15     1     4     0     0     0 -3.2207579417e+01 -2.2674242952e+01 -4.8826673208e+01  6.2758669291e+01  1.7768200000e+00  9.423792e-02 9.
       16     1     4     0     0     0  1.9059078096e+01  6.3898508245e+00 -1.7373600000e+02  1.7489504381e+02  0.0000000000e+00 0. 9.
#pdf    4   -4  2.315222e-03  3.021410e-01  8.193682e+01  6.762976e-01  4.893432e-03
</event>
<event>
     8  9999  1.000000e+00  1.310722e+02  7.849794e-03  1.229253e-01
        1    -1     0     0   101     0  0.0000000000e+00  0.0000000000e+00  4.3858942763e+01  4.3858942763e+01  0.0000000000e+00 0. 9.
       -2    -1     0     0     0   101  0.0000000000e+00  0.0000000000e+00 -3.9197379991e+02  3.9197379991e+02  0.0000000000e+00 0. 9.
       23     2     1     2     0     0 -2.3592928544e+01 -9.6638141892e+01 -1.7717136722e+02  2.2240085741e+02  9.0426164732e+01  3.141950e-14 9.
      -24     2     1     2     0     0  2.3592928544e+01  9.6638141892e+01 -1.7094348993e+02  2.1343188526e+02  8.0224286553e+01  4.024389e-14 9.
        3     1     3     0   102     0  3.1559529102e+01 -6.0822512687e+01 -8.5225263116e+01  1.0935710951e+02  5.0000000000e-01 0. 9.
       -3     1     3     0     0   102 -5.5152457646e+01 -3.5815629205e+01 -9.1946104100e+01  1.1304374790e+02  5.0000000000e-01 0. 9.
        1     1     4     0   103     0  3.2077062428e+01  3.9782559361e+00 -2.7465943219e+01  4.2417583515e+01  3.3000000000e-01 0. 9.
       -4     1     4     0     0   103 -8.4841338848e+00  9.2659885956e+01 -1.4347754671e+02  1.7101430175e+02  1.5000000000e+00 0. 9.
#pdf    1   -2  1.096474e-02  9.799345e-02  1.277947e+02  6.476059e-01  7.315499e-02
</event>
<event>
     8  9999  1.000000e+00  1.255725e+02  7.845966e-03  1.237207e-01
       -2    -1     0     0     0   101  0.0000000000e+00  0.0000000000e+00  2.8737649373e+01  2.8737649373e+01  0.0000000000e+00 0. 9.
        2    -1     0     0   101     0  0.0000000000e+00  0.0000000000e+00 -5.6863513605e+02  5.6863513605e+02  0.0000000000e+00 0. 9.
      -24     2     1     2     0     0  2.9004888961e+01  9.3903915854e+01 -2.1241190538e+02  2.4635123917e+02  7.6882289885e+01  3.918074e-15 9.
       24     2     1     2     0     0 -2.9004888961e+01 -9.3903915854e+01 -3.2748558130e+02  3.5102154626e+02  7.9436081092e+01  7.083326e-15 9.
        1     1     3     0   102     0  2.8435229983e+01  3.0138362606e+01 -1.5534376483e+02  1.6077523869e+02  3.3000000000e-01 0. 9.
       -2     1     3     0     0   102  5.6965897815e-01  6.3765553248e+01 -5.7068140548e+01  8.5576000479e+01  3.3000000000e-01 0. 9.
      -15     1     4     0     0     0  1.2678501746e+01  7.3299002624e+00 -6.4354798343e+01  6.6024003237e+01  1.7768200000e+00  1.725197e-01 9.
       16     1     4     0     0     0 -4.1683390708e+01 -1.0123381612e+02 -2.6313078296e+02  2.8499754302e+02  0.0000000000e+00 0. 9.
#pdf   -2    2  7.184412e-03  1.421588e-01  1.247803e+02  6.087170e-01  5.392443e-01
</event>
<event>
     8  9999  1.000000e+00  9.240930e+01  7.818689e-03  1.297262e-01
        1    -1     0     0   101     0  0.0000000000e+00  0.0000000000e+00  1.2886159523e+03  1.2886159523e+03  0.0000000000e+00 0. 9.
       -1    -1     0     0     0   101  0.0000000000e+00  0.0000000000e+00 -9.4307680765e+00  9.4307680765e+00  0.0000000000e+00 0. 9.
      -24     2     1     2     0     0  1.1569975884e+01  4.6893079336e+01  9.9669174589e+02  1.0010283777e+03  7.9564762075e+01  2.400326e-13 9.
       24     2     1     2     0     0 -1.1569975884e+01 -4.6893079336e+01  2.8249343834e+02  2.9701834271e+02  7.8003384320e+01  7.983552e-14 9.
       11     1     3     0     0     0  3.4773916847e+01  5.5839285631e+01  8.1367371065e+02  8.1632846240e+02  5.1100000000e-04 0. 9.
      -12     1     3     0     0     0 -2.3203940963e+01 -8.9462062954e+00  1.8301803523e+02  1.8469991528e+02  0.0000000000e+00 0. 9.
      -11     1     4     0     0     0 -3.1024250937e+00 -1.2624002226e+01  6.9565100353e-01  1.3018233530e+01  5.1100000000e-04 0. 9.
       12     1     4     0     0     0 -8.4675507907e+00 -3.4269077109e+01  2.8179778734e+02  2.8400010918e+02  0.0000000000e+00 0. 9.
#pdf    1   -1  3.221540e-01  2.357692e-03  9.174613e+01  1.186208e-01  1.020122e+00
</event>
<event>
     8  9999  1.000000e+00  1.106729e+02  7.834708e-03  1.261256e-01
       -1    -1     0     0     0   101  0.0000000000e+00  0.0000000000e+00  7.9006454878e+01  7.9006454878e+01  0.0000000000e+00 0. 9.
        1    -1     0     0   101     0  0.0000000000e+00  0.0000000000e+00 -1.8090940672e+02  1.8090940672e+02  0.0000000000e+00 0. 9.
      -24     2     1     2     0     0  5.0702200821e+01  5.6934939511e+01 -1.7885284747e+00  1.1065805772e+02  8.0185450043e+01  1.504022e-14 9.
       24     2     1     2     0     0 -5.0702200821e+01 -5.6934939511e+01 -1.0011442336e+02  1.4925780388e+02  8.0266392390e+01  1.537429e-13 9.
       13     1     3     0     0     0  4.1080518921e+01 -1.1884926954e+00  2.2592115519e+01  4.6898149189e+01  1.0566000000e-01  9.365485e+05 9.
      -14     1     3     0     0     0  9.6216818996e+00  5.8123432206e+01 -2.4380643994e+01  6.3759908528e+01  0.0000000000e+00 0. 9.
       -1     1     4     0     0   102 -7.1058143911e+01 -5.3221731995e+01 -8.9241876534e+01  1.2588103114e+02  3.3000000000e-01 0. 9.
        2     1     4     0   102     0  2.0355943090e+01 -3.7132075158e+00 -1.0872546830e+01  2.3376772740e+01  3.3000000000e-01 0. 9.
#pdf   -1    1  1.975161e-02  4.522735e-02  1.106436e+02  3.619285e-01  4.446315e-01
</event>
<event>
     8  9999  1.000000e+00  9.711422e+01  7.823094e-03  1.287144e-01
        2    -1     0     0   101     0  0.0000000000e+00  0.0000000000e+00  1.9697790235e+03  1.9697790235e+03  0.0000000000e+00 0. 9.
       -1    -1     0     0     0   101  0.0000000000e+00  0.0000000000e+00 -7.9329850168e+00  7.9329850168e+00  0.0000000000e+00 0. 9.
       23     2     1     2     0     0  4.5960692593e+01  7.4906204048e+00  3.9105589774e+02  4.0421971218e+02  9.1106343925e+01  3.729730e-14 9.
       24     2     1     2     0     0 -4.5960692593e+01 -7.4906204048e+00  1.5707901407e+03  1.5734922963e+03  7.9547757380e+01  3.764987e-14 9.
        4     1     3     0   102     0  4.7543487367e+01  3.2329824160e+01  3.5915101858e+02  3.6372696473e+02  1.5000000000e+00 0. 9.
       -4     1     3     0     0   102 -1.5827947740e+00 -2.4839203755e+01  3.1904879156e+01  4.0492747455e+01  1.5000000000e+00 0. 9.
      -13     1     4     0     0     0  9.3679316851e+00  2.2359591124e+01  7.0792185346e+02  7.0833683459e+02  1.0566000000e-01  6.814992e+05 9.
       14     1     4     0     0     0 -5.5328624278e+01 -2.9850211529e+01  8.6286828724e+02  8.6515546171e+02  0.0000000000e+00 0. 9.
#pdf    2   -1  4.924448e-01  1.983246e-03  9.217560e+01  1.159135e-01  1.099491e+00
</event>
<event>
     8  9999  1.000000e+00  1.124320e+02  7.836112e-03  1.258203e-01
       -4    -1     0     0     0   101  0.0000000000e+00  0.0000000000e+00  1.1241806817e+03  1.1241806817e+03  0.0000000000e+00 0. 9.
        4    -1     0     0   101     0  0.0000000000e+00  0.0000000000e+00 -1.1296108988e+01  1.1296108988e+01  0.0000000000e+00 0. 9.
      -24     2     1     2     0     0 -2.3331877835e+01 -7.4597713609e+01  5.9414578647e+02  6.0466635567e+02  8.0641122890e+01  4.289663e-15 9.
       24     2     1     2     0     0  2.3331877835e+01  7.4597713609e+01  5.1873878625e+02  5.3081043503e+02  8.0997494851e+01  8.191516e-14 9.
       15     1     3     0     0     0 -4.3684320435e+01 -7.4020565411e+01  3.8241561167e+02  3.9195946358e+02  1.7768200000e+00  1.077357e-01 9.
      -16     1     3     0     0     0  2.0352442600e+01 -5.7714819782e-01  2.1173017480e+02  2.1270689209e+02  0.0000000000e+00 0. 9.
       -3     1     4     0     0   102  2.5978129781e+01  5.0335095900e+00  3.0208668095e+02  3.0324381652e+02  5.0000000000e-01 0. 9.
        4     1     4     0   102     0 -2.6462519455e+00  6.9564204019e+01  2.1665210530e+02  2.2756661851e+02  1.5000000000e+00 0. 9.
#pdf   -4    4  2.810452e-01  2.824027e-03  1.123040e+02  5.865803e-03  6.454586e-01
</event>
<event>
     8  9999  1.000000e+00  1.655534e+02  7.870717e-03  1.187650e-01
       -2    -1     0     0     0   101  0.0000000000e+00  0.0000000000e+00  4.1659078005e+01  4.1659078005e+01  0.0000000000e+00 0. 9.
        2    -1     0     0   101     0  0.0000000000e+00  0.0000000000e+00 -7.8557318779e+02  7.8557318779e+02  0.0000000000e+00 0. 9.
      -24     2     1     2     0     0  1.3765548442e+02 -4.0122530999e+01 -5.3678247507e+02  5.6143738253e+02  8.0732020121e+01  6.861124e-14 9.
       24     2     1     2     0     0 -1.3765548442e+02  4.0122530999e+01 -2.0713163471e+02  2.6579488326e+02  8.4761760156e+01  4.416448e-14 9.
        1     1     3     0   102     0  1.1728291903e+02 -1.8758528019e+01 -2.9738852338e+02  3.2022993022e+02  3.3000000000e-01 0. 9.
       -2     1     3     0     0   102  2.0372565393e+01 -2.1364002980e+01 -2.3939395169e+02  2.4120745231e+02  3.3000000000e-01 0. 9.
       -1     1     4     0     0   103 -1.3423876126e+02  4.2560323635e+01 -1.4014478424e+02  1.9867585566e+02  3.3000000000e-01 0. 9.
        2     1     4     0   103     0 -3.4167231612e+00 -2.4377926362e+00 -6.6986850469e+01  6.7119027599e+01  3.3000000000e-01 0. 9.
#pdf   -2    2  1.041477e-02  1.963933e-01  1.645494e+02  5.042516e-01  4.593544e-01
</event>
<event>
     8  9999  1.000000e+00  8.487926e+01  7.811162e-03  1.314954e-01
       -1    -1     0     0     0   101  0.0000000000e+00  0.0000000000e+00  4.2871962294e+01  4.2871962294e+01  0.0000000000e+00 0. 9.
        2    -1     0     0   101     0  0.0000000000e+00  0.0000000000e+00 -7.1832283942e+02  7.1832283942e+02  0.0000000000e+00 0. 9.
       23     2     1     2     0     0  6.1380099961e+00 -1.3499515334e+01 -5.1675156425e+00  8.5632892772e+01  8.4180621437e+01  5.699462e-14 9.
       24     2     1     2     0     0 -6.1380099961e+00  1.3499515334e+01 -6.7028336148e+02  6.7556190894e+02  8.2971055498e+01  7.338379e-14 9.
       12     1     3     0     0     0  3.9693869131e+01  1.3318458451e+01 -7.8306125975e+00  4.2594636701e+01  0.0000000000e+00 0. 9.
      -12     1     3     0     0     0 -3.3555859135e+01 -2.6817973785e+01  2.6630969550e+00  4.3038256070e+01  0.0000000000e+00 0. 9.
       -3     1     4     0     0   102  3.0155742513e+00 -2.9682413715e+01 -1.2581461787e+02  1.2930470773e+02  5.0000000000e-01 0. 9.
        4     1     4     0   102     0 -9.1535842474e+00  4.3181929048e+01 -5.4446874361e+02  5.4625720121e+02  1.5000000000e+00 0. 9.
#pdf   -1    2  1.071799e-02  1.795807e-01  8.428587e+01  4.999740e-01  5.029116e-01
</event>
<event>
     8  9999  1.000000e+00  1.022805e+02  7.827696e-03  1.276751e-01
       -1    -1     0     0     0   101  0.0000000000e+00  0.0000000000e+00  3.0341296711e+02  3.0341296711e+02  0.0000000000e+00 0. 9.
        2    -1     0     0   101     0  0.0000000000e+00  0.0000000000e+00 -1.3811715195e+02  1.3811715195e+02  0.0000000000e+00 0. 9.
       23     2     1     2     0     0 -1.0688637712e+01  4.7843629948e+01  2.7523434130e+02  2.9688051286e+02  9.9904135965e+01  8.822028e-14 9.
       24     2     1     2     0     0  1.0688637712e+01 -4.7843629948e+01 -1.0993852614e+02  1.4464960620e+02  8.0210779458e+01  1.143779e-13 9.
        5     1     3     0   102     0  2.4662132814e+01  2.0968716356e+01  2.1296941124e+01  3.9044942845e+01  4.8000000000e+00 0. 9.
       -5     1     3     0     0   102 -3.5350770526e+01  2.6874913593e+01  2.5393740017e+02  2.5783557001e+02  4.8000000000e+00 0. 9.
      -11     1     4     0     0     0 -7.0106046864e+00  3.6581558294e+00  1.0104835239e+01  1.2831148725e+01  5.1100000000e-04 0. 9.
       12     1     4     0     0     0  1.7699242398e+01 -5.1501785778e+01 -1.2004336138e+02  1.3181845748e+02  0.0000000000e+00 0. 9.
#pdf   -1    2  7.585324e-02  3.452929e-02  9.400547e+01  1.314772e-01  6.330660e-01
</event>
<event>
     8  9999  1.000000e+00  9.160451e+01  7.817914e-03  1.299061e-01
        2    -1     0     0   101     0  0.0000000000e+00  0.0000000000e+00  5.5063573579e+02  5.5063573579e+02  0.0000000000e+00 0. 9.
       -2    -1     0     0     0   101  0.0000000000e+00  0.0000000000e+00 -1.1377231486e+02  1.1377231486e+02  0.0000000000e+00 0. 9.
      -24     2     1     2     0     0 -4.1070881754e+01 -1.5839883347e+01 -9.0266135587e+01  1.2961437642e+02  8.1940173957e+01  4.660506e-14 9.
       24     2     1     2     0     0  4.1070881754e+01  1.5839883347e+01  5.2712955652e+02  5.3479367424e+02  7.8746335920e+01  3.288573e-14 9.
        3     1     3     0   102     0 -1.7578231796e+01  1.4952624368e+01 -8.7791633608e+01  9.0775526108e+01  5.0000000000e-01 0. 9.
       -4     1     3     0     0   102 -2.3492649958e+01 -3.0792507715e+01 -2.4745019786e+00  3.8838850311e+01  1.5000000000e+00 0. 9.
      -11     1     4     0     0     0  8.8398359202e+00  3.9820169366e+01  1.4722797010e+02  1.5277389753e+02  5.1100000000e-04 0. 9.
       12     1     4     0     0     0  3.2231045833e+01 -2.3980286019e+01  3.7990158642e+02  3.8201977671e+02  0.0000000000e+00 0. 9.
#pdf    2   -2  1.376589e-01  2.844308e-02  9.021477e+01  5.523885e-01  2.529558e-01
</event>
<event>
     8  9999  1.000000e+00  8.680324e+01  7.813146e-03  1.310242e-01
       -1    -1     0     0     0   101  0.0000000000e+00  0.0000000000e+00  6.0964211395e+01  6.0964211395e+01  0.0000000000e+00 0. 9.
        1    -1     0     0   101     0  0.0000000000e+00  0.0000000000e+00 -2.8860458612e+02  2.8860458612e+02  0.0000000000e+00 0. 9.
      -24     2     1     2     0     0 -1.1683266832e+01  2.8391313659e+01 -2.4607553605e+02  2.6099219403e+02  8.1370697978e+01  9.346832e-14 9.
       24     2     1     2     0     0  1.1683266832e+01 -2.8391313659e+01  1.8435161321e+01  8.8576603485e+01  8.1014777027e+01  7.684691e-15 9.
        1     1     3     0   102     0 -3.3384109731e+01  4.7460172647e+01 -1.6852063499e+02  1.7823097398e+02  3.3000000000e-01 0. 9.
       -2     1     3     0     0   102  2.1700842899e+01 -1.9068858988e+01 -7.7554901063e+01  8.2761220052e+01  3.3000000000e-01 0. 9.
       -3     1     4     0     0   103 -3.3995845066e+01 -1.6205969754e+01 -3.9399177131e-01  3.7666379796e+01  5.0000000000e-01 0. 9.
        4     1     4     0   103     0  4.5679111898e+01 -1.2185343905e+01  1.8829153093e+01  5.0910223689e+01  1.5000000000e+00 0. 9.
#pdf   -1    1  1.524105e-02  7.215115e-02  8.663694e+01  4.154551e-01  3.981312e-01
</event>
</LesHouchesEvents>
